# vtk DataFile Version 3.1
for FEM Programme output
ASCII
DATASET UNSTRUCTURED_GRID
POINTS 11 double
 -600.0 0.0 0.0
 -500.0 0.0 0.0
 -400.0 0.0 0.0
 -300.0 0.0 0.0
 -200.0 0.0 0.0
 -100.0 0.0 0.0
 0.0 0.0 0.0
 100.0 0.0 0.0
 200.0 0.0 0.0
 300.0 0.0 0.0
 400.0 0.0 0.0
CELLS 10 30
2 0 1
2 1 2
2 2 3
2 3 4
2 4 5
2 5 6
2 6 7
2 7 8
2 8 9
2 9 10
CELL_TYPES 10
3
3
3
3
3
3
3
3
3
3
POINT_DATA 11
VECTORS displacement double
0.0  0.0  0.0
0.0  -0.04905  0.0
0.0  -0.0928  0.0
0.0  -0.12705  0.0
0.0  -0.1488  0.0
0.0  -0.15625  0.0
0.0  -0.1488  0.0
0.0  -0.12705  0.0
0.0  -0.0928  0.0
0.0  -0.04905  0.0
0.0  0.0  0.0
FIELD FieldData 3
AppliedForcesMoments 3 11 double
0.0 -50.0 -833.333333 
0.0 -100.0 -0.0 
0.0 -100.0 -0.0 
0.0 -100.0 -0.0 
0.0 -100.0 -0.0 
0.0 -100.0 -0.0 
0.0 -100.0 -0.0 
0.0 -100.0 -0.0 
0.0 -100.0 -0.0 
0.0 -100.0 -0.0 
0.0 -50.0 833.333333 
ReactionForcesMoments 3 11 double
0.0 450.0 0.0 
0.0 0.0 0.0 
0.0 0.0 0.0 
0.0 0.0 0.0 
0.0 0.0 0.0 
0.0 0.0 0.0 
0.0 0.0 0.0 
0.0 0.0 0.0 
0.0 0.0 0.0 
0.0 0.0 0.0 
0.0 450.0 0.0 
AdditionalDoFs 1 11 double
-0.0005 
-0.000472 
-0.000396 
-0.000284 
-0.000148 
0.0 
0.000148 
0.000284 
0.000396 
0.000472 
0.0005 
