# vtk DataFile Version 3.1
for FEM Programme output
ASCII
DATASET UNSTRUCTURED_GRID
POINTS 8 double
 -160.086899 -24.053007 0.0
 839.913086 -774.05304 0.0
 -1160.08691 -774.052979 0.0
 839.913086 725.94696 0.0
 -826.75354 -524.052979 0.0
 -493.420227 -274.053009 0.0
 173.246445 225.946991 0.0
 506.579773 475.946991 0.0
CELLS 7 21
2 0 1
2 2 4
2 4 5
2 5 0
2 0 6
2 6 7
2 7 3
CELL_TYPES 7
3
3
3
3
3
3
3
POINT_DATA 8
VECTORS displacement double
0.024471  -0.079536  0.0
0.0  0.0  0.0
0.0  0.0  0.0
0.0  0.0  0.0
0.041439  -0.070888  0.0
0.05715  -0.107472  0.0
0.054777  -0.104308  0.0
0.040252  -0.069306  0.0
FIELD FieldData 3
AppliedForcesMoments 3 8 double
250.000001 -5333.333335 -0.000731 
0.0 0.0 0.0 
125.000009 -166.666678 -14467.59463 
124.99999 -166.666653 14467.590171 
249.999999 -333.333331 0.004417 
249.999989 -333.333318 -0.002162 
250.000001 -333.333335 0.00081 
249.999988 -333.333318 0.002125 
ReactionForcesMoments 3 8 double
0.0 0.0 0.0 
-4304.377074 3233.978512 0.0 
1525.138011 1719.077785 142224.329374 
1529.239085 1713.610341 -139376.548126 
0.0 0.0 0.0 
0.0 0.0 0.0 
0.0 0.0 0.0 
0.0 0.0 0.0 
AdditionalDoFs 1 8 double
1.1e-05 
5.3e-05 
0.0 
0.0 
-0.000232 
6.1e-05 
-6.1e-05 
0.000225 
