# vtk DataFile Version 3.1
for FEM Programme output
ASCII
DATASET UNSTRUCTURED_GRID
POINTS 8 double
 -160.086899 -24.053007 0.0
 839.913086 -774.05304 0.0
 -1160.08691 -774.052979 0.0
 839.913086 725.94696 0.0
 -826.75354 -524.052979 0.0
 -493.420227 -274.053009 0.0
 173.246445 225.946991 0.0
 506.579773 475.946991 0.0
CELLS 7 21
2 0 1
2 2 4
2 4 5
2 5 0
2 0 6
2 6 7
2 7 3
CELL_TYPES 7
3
3
3
3
3
3
3
POINT_DATA 8
VECTORS displacement double
0.279475  -0.421248  0.0
0.0  0.0  0.0
0.0  0.0  0.0
0.0  0.0  0.0
0.070728  -0.110509  0.0
0.208747  -0.310739  0.0
0.208747  -0.310739  0.0
0.070728  -0.110509  0.0
FIELD FieldData 3
AppliedForcesMoments 3 8 double
-375.000016 -5499.999992 0.0 
-375.000016 -499.999992 0.0 
0.0 0.0 0.0 
0.0 0.0 0.0 
0.0 0.0 0.0 
0.0 0.0 0.0 
0.0 0.0 0.0 
0.0 0.0 0.0 
ReactionForcesMoments 3 8 double
0.0 0.0 0.0 
-3048.503582 2286.377821 0.0 
1711.751539 1606.810883 161498.663907 
1711.75206 1606.811288 -161498.645516 
0.0 0.0 0.0 
0.0 0.0 0.0 
0.0 0.0 0.0 
0.0 0.0 0.0 
AdditionalDoFs 1 8 double
0.0 
0.0 
0.0 
0.0 
-0.000538 
-0.000538 
0.000538 
0.000538 
