# vtk DataFile Version 3.1
for FEM Programme output
ASCII
DATASET UNSTRUCTURED_GRID
POINTS 8 double
 -160.086899 -24.053007 0.0
 839.913086 -774.05304 0.0
 -1160.08691 -774.052979 0.0
 839.913086 725.94696 0.0
 -826.75354 -524.052979 0.0
 -493.420227 -274.053009 0.0
 173.246445 225.946991 0.0
 506.579773 475.946991 0.0
CELLS 7 21
2 0 1
2 2 4
2 4 5
2 5 0
2 0 6
2 6 7
2 7 3
CELL_TYPES 7
3
3
3
3
3
3
3
POINT_DATA 8
VECTORS displacement double
0.357601  -0.522035  0.0
0.0  0.0  0.0
0.0  0.0  0.0
0.0  0.0  0.0
0.127272  -0.184774  0.0
0.302667  -0.433712  0.0
0.302667  -0.433712  0.0
0.127272  -0.184774  0.0
FIELD FieldData 3
AppliedForcesMoments 3 8 double
250.0 -5333.333336 -0.000731 
0.0 0.0 0.0 
125.0 -166.666685 -14467.59463 
124.999984 -166.666657 14467.590171 
249.999985 -333.333341 0.004417 
249.999986 -333.33332 -0.002162 
249.999999 -333.333336 0.00081 
249.999985 -333.33332 0.002125 
ReactionForcesMoments 3 8 double
0.0 0.0 0.0 
-3835.532188 2876.64931 0.0 
1292.765704 1895.008345 318041.160689 
1292.766529 1895.008999 -318041.141622 
0.0 0.0 0.0 
0.0 0.0 0.0 
0.0 0.0 0.0 
0.0 0.0 0.0 
AdditionalDoFs 1 8 double
0.0 
0.0 
0.0 
0.0 
-0.000819 
-0.00053 
0.00053 
0.000819 
