# vtk DataFile Version 3.1
for FEM Programme output
ASCII
DATASET UNSTRUCTURED_GRID
POINTS 3995 double
 -50.0 -50.0 0.0
 -50.0 50.0 0.0
 50.0 -50.0 0.0
 50.0 50.0 0.0
 -50.0 -48.0 0.0
 -50.0 -46.0 0.0
 -50.0 -44.0 0.0
 -50.0 -42.0 0.0
 -50.0 -40.0 0.0
 -50.0 -38.0 0.0
 -50.0 -36.0 0.0
 -50.0 -34.0 0.0
 -50.0 -32.0 0.0
 -50.0 -30.0 0.0
 -50.0 -28.0 0.0
 -50.0 -26.0 0.0
 -50.0 -24.0 0.0
 -50.0 -22.0 0.0
 -50.0 -20.0 0.0
 -50.0 -18.0 0.0
 -50.0 -16.0 0.0
 -50.0 -14.0 0.0
 -50.0 -12.0 0.0
 -50.0 -10.0 0.0
 -50.0 -8.0 0.0
 -50.0 -6.0 0.0
 -50.0 -4.0 0.0
 -50.0 -2.0 0.0
 -50.0 0.0 0.0
 -50.0 2.0 0.0
 -50.0 4.0 0.0
 -50.0 6.0 0.0
 -50.0 8.0 0.0
 -50.0 10.0 0.0
 -50.0 12.0 0.0
 -50.0 14.0 0.0
 -50.0 16.0 0.0
 -50.0 18.0 0.0
 -50.0 20.0 0.0
 -50.0 22.0 0.0
 -50.0 24.0 0.0
 -50.0 26.0 0.0
 -50.0 28.0 0.0
 -50.0 30.0 0.0
 -50.0 32.0 0.0
 -50.0 34.0 0.0
 -50.0 36.0 0.0
 -50.0 38.0 0.0
 -50.0 40.0 0.0
 -50.0 42.0 0.0
 -50.0 44.0 0.0
 -50.0 46.0 0.0
 -50.0 48.0 0.0
 -48.0 -50.0 0.0
 -46.0 -50.0 0.0
 -44.0 -50.0 0.0
 -42.0 -50.0 0.0
 -40.0 -50.0 0.0
 -38.0 -50.0 0.0
 -36.0 -50.0 0.0
 -34.0 -50.0 0.0
 -32.0 -50.0 0.0
 -30.0 -50.0 0.0
 -28.0 -50.0 0.0
 -26.0 -50.0 0.0
 -24.0 -50.0 0.0
 -22.0 -50.0 0.0
 -20.0 -50.0 0.0
 -18.0 -50.0 0.0
 -16.0 -50.0 0.0
 -14.0 -50.0 0.0
 -12.0 -50.0 0.0
 -10.0 -50.0 0.0
 -8.0 -50.0 0.0
 -6.0 -50.0 0.0
 -4.0 -50.0 0.0
 -2.0 -50.0 0.0
 0.0 -50.0 0.0
 2.0 -50.0 0.0
 4.0 -50.0 0.0
 6.0 -50.0 0.0
 8.0 -50.0 0.0
 10.0 -50.0 0.0
 12.0 -50.0 0.0
 14.0 -50.0 0.0
 16.0 -50.0 0.0
 18.0 -50.0 0.0
 20.0 -50.0 0.0
 22.0 -50.0 0.0
 24.0 -50.0 0.0
 26.0 -50.0 0.0
 28.0 -50.0 0.0
 30.0 -50.0 0.0
 32.0 -50.0 0.0
 34.0 -50.0 0.0
 36.0 -50.0 0.0
 38.0 -50.0 0.0
 40.0 -50.0 0.0
 42.0 -50.0 0.0
 44.0 -50.0 0.0
 46.0 -50.0 0.0
 48.0 -50.0 0.0
 50.0 -48.0 0.0
 50.0 -46.0 0.0
 50.0 -44.0 0.0
 50.0 -42.0 0.0
 50.0 -40.0 0.0
 50.0 -38.0 0.0
 50.0 -36.0 0.0
 50.0 -34.0 0.0
 50.0 -32.0 0.0
 50.0 -30.0 0.0
 50.0 -28.0 0.0
 50.0 -26.0 0.0
 50.0 -24.0 0.0
 50.0 -22.0 0.0
 50.0 -20.0 0.0
 50.0 -18.0 0.0
 50.0 -16.0 0.0
 50.0 -14.0 0.0
 50.0 -12.0 0.0
 50.0 -10.0 0.0
 50.0 -8.0 0.0
 50.0 -6.0 0.0
 50.0 -4.0 0.0
 50.0 -2.0 0.0
 50.0 0.0 0.0
 50.0 2.0 0.0
 50.0 4.0 0.0
 50.0 6.0 0.0
 50.0 8.0 0.0
 50.0 10.0 0.0
 50.0 12.0 0.0
 50.0 14.0 0.0
 50.0 16.0 0.0
 50.0 18.0 0.0
 50.0 20.0 0.0
 50.0 22.0 0.0
 50.0 24.0 0.0
 50.0 26.0 0.0
 50.0 28.0 0.0
 50.0 30.0 0.0
 50.0 32.0 0.0
 50.0 34.0 0.0
 50.0 36.0 0.0
 50.0 38.0 0.0
 50.0 40.0 0.0
 50.0 42.0 0.0
 50.0 44.0 0.0
 50.0 46.0 0.0
 50.0 48.0 0.0
 -48.0 50.0 0.0
 -46.0 50.0 0.0
 -44.0 50.0 0.0
 -42.0 50.0 0.0
 -40.0 50.0 0.0
 -38.0 50.0 0.0
 -36.0 50.0 0.0
 -34.0 50.0 0.0
 -32.0 50.0 0.0
 -30.0 50.0 0.0
 -28.0 50.0 0.0
 -26.0 50.0 0.0
 -24.0 50.0 0.0
 -22.0 50.0 0.0
 -20.0 50.0 0.0
 -18.0 50.0 0.0
 -16.0 50.0 0.0
 -14.0 50.0 0.0
 -12.0 50.0 0.0
 -10.0 50.0 0.0
 -8.0 50.0 0.0
 -6.0 50.0 0.0
 -4.0 50.0 0.0
 -2.0 50.0 0.0
 0.0 50.0 0.0
 2.0 50.0 0.0
 4.0 50.0 0.0
 6.0 50.0 0.0
 8.0 50.0 0.0
 10.0 50.0 0.0
 12.0 50.0 0.0
 14.0 50.0 0.0
 16.0 50.0 0.0
 18.0 50.0 0.0
 20.0 50.0 0.0
 22.0 50.0 0.0
 24.0 50.0 0.0
 26.0 50.0 0.0
 28.0 50.0 0.0
 30.0 50.0 0.0
 32.0 50.0 0.0
 34.0 50.0 0.0
 36.0 50.0 0.0
 38.0 50.0 0.0
 40.0 50.0 0.0
 42.0 50.0 0.0
 44.0 50.0 0.0
 46.0 50.0 0.0
 48.0 50.0 0.0
 -27.722431 -3.983341 0.0
 27.722431 -3.983341 0.0
 -5e-06 44.033165 0.0
 -41.583634 20.024988 0.0
 -13.861216 20.024989 0.0
 -27.72346 44.033127 0.0
 -48.357382 32.020471 0.0
 -34.653039 32.029154 0.0
 -41.584992 44.03293 0.0
 -45.045989 38.030837 0.0
 -48.3564 44.022626 0.0
 -48.356928 8.014658 0.0
 -45.045865 14.022579 0.0
 -48.357411 20.01736 0.0
 -41.58363 -27.991674 0.0
 -48.357382 -15.991173 0.0
 -34.653039 -15.987506 0.0
 -41.583634 -3.983342 0.0
 -45.045989 -9.985683 0.0
 -48.357411 -3.988463 0.0
 -48.356928 -39.996977 0.0
 -45.045864 -33.993936 0.0
 -48.357162 -27.994446 0.0
 -13.861216 -27.99167 0.0
 -34.653042 -39.995831 0.0
 -45.04426 -45.984196 0.0
 -31.183128 -45.984847 0.0
 -38.132034 -45.980402 0.0
 -6.930609 -39.995831 0.0
 -20.791825 -39.995831 0.0
 -17.319503 -45.984126 0.0
 -24.267521 -45.980402 0.0
 -3.45474 -45.984126 0.0
 -10.410083 -45.984034 0.0
 41.583634 -27.991671 0.0
 13.861216 -27.99167 0.0
 20.791825 -39.995831 0.0
 6.930608 -39.995831 0.0
 10.410024 -45.984126 0.0
 3.454696 -45.984034 0.0
 24.267564 -45.980516 0.0
 17.319473 -45.984034 0.0
 48.357382 -39.99718 0.0
 34.653041 -39.995831 0.0
 38.132064 -45.980516 0.0
 31.183056 -45.984775 0.0
 45.044077 -45.984056 0.0
 45.046107 -33.993861 0.0
 48.357411 -27.99407 0.0
 48.356928 -15.991383 0.0
 34.653039 -15.987506 0.0
 41.583631 -3.983339 0.0
 45.046108 -9.9856 0.0
 48.357162 -3.988096 0.0
 41.583631 20.02499 0.0
 48.357382 8.01446 0.0
 45.046108 14.02266 0.0
 48.357162 20.017724 0.0
 48.357654 32.020362 0.0
 13.861216 20.024989 0.0
 27.723458 44.033138 0.0
 34.653039 32.029154 0.0
 41.584606 44.032746 0.0
 45.046111 38.030922 0.0
 48.355628 44.023375 0.0
 13.861702 44.033126 0.0
 -13.861723 44.033131 0.0
 0.0 -3.983341 0.0
 34.653039 8.020824 0.0
 20.791823 -15.987506 0.0
 27.722431 -27.99167 0.0
 -34.653039 8.020824 0.0
 -20.791823 -15.987506 0.0
 -27.722431 -27.99167 0.0
 0.0 -27.99167 0.0
 -6.930608 -15.987506 0.0
 -13.861216 -3.983341 0.0
 6.930608 -15.987506 0.0
 13.861216 -3.983341 0.0
 -20.791823 8.020824 0.0
 -27.722431 20.024989 0.0
 -20.791823 32.029154 0.0
 -6.930608 32.029154 0.0
 20.791823 8.020824 0.0
 27.722431 20.024989 0.0
 6.930608 32.029154 0.0
 20.791823 32.029154 0.0
 0.0 20.024989 0.0
 6.930608 8.020824 0.0
 -6.930608 8.020824 0.0
 34.651643 44.032628 0.0
 20.791066 44.031799 0.0
 6.930104 44.03198 0.0
 -6.929821 44.031686 0.0
 -20.791061 44.031796 0.0
 -34.65161 44.032651 0.0
 45.045987 26.026983 0.0
 38.118343 14.022907 0.0
 41.583637 8.020825 0.0
 45.045988 2.018723 0.0
 38.118343 2.018742 0.0
 31.187735 2.018742 0.0
 34.653039 -3.983341 0.0
 31.187735 -9.985423 0.0
 24.257127 -9.985423 0.0
 27.722431 -15.987506 0.0
 38.118343 -21.989588 0.0
 31.187735 -21.989588 0.0
 34.653039 -27.99167 0.0
 24.257127 -21.989588 0.0
 17.326519 -21.989588 0.0
 20.791823 -27.99167 0.0
 38.118343 -33.993753 0.0
 41.583636 -39.99583 0.0
 17.326519 -33.993753 0.0
 10.395912 -33.993753 0.0
 13.861216 -39.995831 0.0
 27.72243 -39.995832 0.0
 24.257127 -33.993753 0.0
 31.187735 -33.993753 0.0
 45.045865 -21.989549 0.0
 41.583636 -15.987505 0.0
 38.118343 -9.985423 0.0
 -45.046107 26.026902 0.0
 -38.118343 14.022907 0.0
 -41.583636 8.020822 0.0
 -31.187735 2.018742 0.0
 -38.118343 2.018742 0.0
 -34.653039 -3.983341 0.0
 -45.046108 2.018642 0.0
 -24.257127 -9.985423 0.0
 -31.187735 -9.985423 0.0
 -27.722431 -15.987506 0.0
 -17.326519 -21.989588 0.0
 -24.257127 -21.989588 0.0
 -20.791823 -27.99167 0.0
 -31.187735 -21.989588 0.0
 -38.118343 -21.989588 0.0
 -34.653039 -27.99167 0.0
 -10.395912 -33.993753 0.0
 -17.326519 -33.993753 0.0
 -13.861216 -39.995831 0.0
 -38.118343 -33.993753 0.0
 -41.583635 -39.995833 0.0
 -27.72243 -39.995832 0.0
 -31.187735 -33.993753 0.0
 -24.257127 -33.993753 0.0
 -45.046108 -21.989619 0.0
 -41.583637 -15.987508 0.0
 -38.118343 -9.985423 0.0
 0.0 -39.995832 0.0
 -3.465304 -33.993753 0.0
 -6.930608 -27.99167 0.0
 3.465304 -33.993753 0.0
 6.930608 -27.99167 0.0
 -10.395912 -21.989588 0.0
 -13.861216 -15.987506 0.0
 -17.326519 -9.985423 0.0
 -20.791823 -3.983341 0.0
 -10.395912 -9.985423 0.0
 -3.465304 -9.985423 0.0
 -6.930608 -3.983341 0.0
 10.395912 -21.989588 0.0
 13.861216 -15.987506 0.0
 3.465304 -9.985423 0.0
 10.395912 -9.985423 0.0
 6.930608 -3.983341 0.0
 17.326519 -9.985423 0.0
 20.791823 -3.983341 0.0
 0.0 -15.987506 0.0
 3.465304 -21.989588 0.0
 -3.465304 -21.989588 0.0
 -24.257127 2.018742 0.0
 -27.722431 8.020824 0.0
 -31.187735 14.022907 0.0
 -34.653039 20.024989 0.0
 -24.257127 14.022907 0.0
 -17.326519 14.022907 0.0
 -20.791823 20.024989 0.0
 -38.118343 26.027071 0.0
 -41.583637 32.02915 0.0
 -38.118343 38.031236 0.0
 -31.187735 38.031236 0.0
 -17.326519 26.027071 0.0
 -10.395912 26.027071 0.0
 -13.861216 32.029154 0.0
 -24.257127 38.031236 0.0
 -17.32652 38.031236 0.0
 -10.395912 38.031236 0.0
 -3.465304 38.031236 0.0
 -27.722431 32.029154 0.0
 -24.257127 26.027071 0.0
 -31.187735 26.027071 0.0
 24.257127 2.018742 0.0
 27.722431 8.020824 0.0
 17.326519 14.022907 0.0
 24.257127 14.022907 0.0
 20.791823 20.024989 0.0
 31.187735 14.022907 0.0
 34.653039 20.024989 0.0
 10.395912 26.027071 0.0
 17.326519 26.027071 0.0
 13.861216 32.029154 0.0
 3.465304 38.031236 0.0
 10.395912 38.031236 0.0
 17.32652 38.031236 0.0
 24.257127 38.031236 0.0
 38.118343 26.027071 0.0
 41.583635 32.029152 0.0
 31.187735 38.031236 0.0
 38.118343 38.031236 0.0
 27.722431 32.029154 0.0
 31.187735 26.027071 0.0
 24.257127 26.027071 0.0
 -0.0 32.029154 0.0
 3.465304 26.027071 0.0
 6.930608 20.024989 0.0
 -3.465304 26.027071 0.0
 -6.930608 20.024989 0.0
 10.395912 14.022907 0.0
 13.861216 8.020824 0.0
 17.326519 2.018742 0.0
 10.395912 2.018742 0.0
 3.465304 2.018742 0.0
 -10.395912 14.022907 0.0
 -13.861216 8.020824 0.0
 -3.465304 2.018742 0.0
 -10.395912 2.018742 0.0
 -17.326519 2.018742 0.0
 0.0 8.020824 0.0
 -3.465304 14.022907 0.0
 3.465304 14.022907 0.0
 46.700242 47.019645 0.0
 43.332522 46.984353 0.0
 45.044788 44.032097 0.0
 39.869025 47.028823 0.0
 36.340438 47.027636 0.0
 38.117954 44.033163 0.0
 32.889235 46.984601 0.0
 29.51377 47.023238 0.0
 31.188788 44.032437 0.0
 25.991577 47.029784 0.0
 22.470342 47.020644 0.0
 24.256351 44.03311 0.0
 19.095773 46.978352 0.0
 15.640888 47.027222 0.0
 17.327748 44.03248 0.0
 12.113158 47.029572 0.0
 8.59901 47.018347 0.0
 10.394852 44.033018 0.0
 5.231337 46.986441 0.0
 1.764743 47.02939 0.0
 3.46661 44.032924 0.0
 -1.764714 47.028896 0.0
 -5.227116 46.981755 0.0
 -3.466465 44.032752 0.0
 -8.597041 47.016077 0.0
 -12.113365 47.029608 0.0
 -10.394857 44.033017 0.0
 -15.641585 47.027256 0.0
 -19.095876 46.978524 0.0
 -17.327732 44.032451 0.0
 -22.470296 47.020108 0.0
 -25.9916 47.029853 0.0
 -24.256396 44.033136 0.0
 -29.513523 47.022581 0.0
 -32.888977 46.9849 0.0
[...]
POINT_DATA 3995
VECTORS displacement double
0.0  0.0  0.0
0.0  0.0  0.0
1.0  0.154421  0.0
1.0  -0.154416  0.0
0.0  0.0  0.0
0.0  0.0  0.0
0.0  0.0  0.0
0.0  0.0  0.0
0.0  0.0  0.0
0.0  0.0  0.0
0.0  0.0  0.0
0.0  0.0  0.0
0.0  0.0  0.0
0.0  0.0  0.0
0.0  0.0  0.0
0.0  0.0  0.0
0.0  0.0  0.0
0.0  0.0  0.0
0.0  0.0  0.0
0.0  0.0  0.0
0.0  0.0  0.0
0.0  0.0  0.0
0.0  0.0  0.0
0.0  0.0  0.0
0.0  0.0  0.0
0.0  0.0  0.0
0.0  0.0  0.0
0.0  0.0  0.0
0.0  0.0  0.0
0.0  0.0  0.0
0.0  0.0  0.0
0.0  0.0  0.0
0.0  0.0  0.0
0.0  0.0  0.0
0.0  0.0  0.0
0.0  0.0  0.0
0.0  0.0  0.0
0.0  0.0  0.0
0.0  0.0  0.0
0.0  0.0  0.0
0.0  0.0  0.0
0.0  0.0  0.0
0.0  0.0  0.0
0.0  0.0  0.0
0.0  0.0  0.0
0.0  0.0  0.0
0.0  0.0  0.0
0.0  0.0  0.0
0.0  0.0  0.0
0.0  0.0  0.0
0.0  0.0  0.0
0.0  0.0  0.0
0.0  0.0  0.0
0.035306  0.024337  0.0
0.061594  0.040918  0.0
0.084603  0.054501  0.0
0.106032  0.066013  0.0
0.126546  0.076009  0.0
0.146466  0.08469  0.0
0.165961  0.092429  0.0
0.185169  0.099303  0.0
0.204178  0.105436  0.0
0.223051  0.11092  0.0
0.241834  0.115832  0.0
0.260568  0.120251  0.0
0.279274  0.124176  0.0
0.297971  0.127714  0.0
0.316682  0.130881  0.0
0.335416  0.133717  0.0
0.354186  0.136252  0.0
0.372998  0.138526  0.0
0.391863  0.140533  0.0
0.410778  0.142329  0.0
0.429749  0.143925  0.0
0.448778  0.14534  0.0
0.467865  0.146591  0.0
0.487013  0.147694  0.0
0.506221  0.14867  0.0
0.525487  0.149516  0.0
0.54481  0.15026  0.0
0.564189  0.150908  0.0
0.583623  0.15147  0.0
0.603109  0.151956  0.0
0.622645  0.152375  0.0
0.642229  0.152736  0.0
0.661858  0.153039  0.0
0.68153  0.153297  0.0
0.701242  0.153515  0.0
0.720991  0.153697  0.0
0.740776  0.153849  0.0
0.760594  0.153975  0.0
0.780441  0.154076  0.0
0.800315  0.154159  0.0
0.820214  0.154225  0.0
0.840135  0.154278  0.0
0.860076  0.15432  0.0
0.880034  0.154352  0.0
0.900006  0.154377  0.0
0.91999  0.154394  0.0
0.939984  0.154407  0.0
0.959985  0.154415  0.0
0.979991  0.15442  0.0
1.0  0.148417  0.0
1.0  0.142409  0.0
1.0  0.136392  0.0
1.0  0.130365  0.0
1.0  0.124325  0.0
1.0  0.11827  0.0
1.0  0.112198  0.0
1.0  0.106108  0.0
1.0  0.099999  0.0
1.0  0.09387  0.0
1.0  0.087722  0.0
1.0  0.081554  0.0
1.0  0.075367  0.0
1.0  0.069161  0.0
1.0  0.062937  0.0
1.0  0.056695  0.0
1.0  0.050438  0.0
1.0  0.044167  0.0
1.0  0.037883  0.0
1.0  0.031587  0.0
1.0  0.025282  0.0
1.0  0.018969  0.0
1.0  0.01265  0.0
1.0  0.006327  0.0
1.0  3e-06  0.0
1.0  -0.006322  0.0
1.0  -0.012645  0.0
1.0  -0.018964  0.0
1.0  -0.025277  0.0
1.0  -0.031582  0.0
1.0  -0.037878  0.0
1.0  -0.044162  0.0
1.0  -0.050433  0.0
1.0  -0.05669  0.0
1.0  -0.062931  0.0
1.0  -0.069156  0.0
1.0  -0.075362  0.0
1.0  -0.081549  0.0
1.0  -0.087717  0.0
1.0  -0.093865  0.0
1.0  -0.099994  0.0
1.0  -0.106103  0.0
1.0  -0.112193  0.0
1.0  -0.118265  0.0
1.0  -0.12432  0.0
1.0  -0.13036  0.0
1.0  -0.136387  0.0
1.0  -0.142404  0.0
1.0  -0.148412  0.0
0.035382  -0.024372  0.0
0.061482  -0.040935  0.0
0.084559  -0.05447  0.0
0.106018  -0.065984  0.0
0.126536  -0.075948  0.0
0.146448  -0.084689  0.0
0.165946  -0.092417  0.0
0.185158  -0.09929  0.0
0.204182  -0.105458  0.0
0.223058  -0.110907  0.0
0.241841  -0.115822  0.0
0.260569  -0.120225  0.0
0.279271  -0.124171  0.0
0.297968  -0.127708  0.0
0.316681  -0.130893  0.0
0.335421  -0.133709  0.0
0.35419  -0.136245  0.0
0.373002  -0.13851  0.0
0.391863  -0.140528  0.0
0.410777  -0.142325  0.0
0.429747  -0.14392  0.0
0.448779  -0.145344  0.0
0.467867  -0.146586  0.0
0.487014  -0.147689  0.0
0.506221  -0.14866  0.0
0.525486  -0.149511  0.0
0.544809  -0.150255  0.0
0.564189  -0.150908  0.0
0.583624  -0.151465  0.0
0.603109  -0.151952  0.0
0.622645  -0.15237  0.0
0.642229  -0.152728  0.0
0.661857  -0.153033  0.0
0.681529  -0.153292  0.0
0.701242  -0.153512  0.0
0.720992  -0.153693  0.0
0.740776  -0.153844  0.0
0.760594  -0.153969  0.0
0.780441  -0.154071  0.0
0.800315  -0.154154  0.0
0.820214  -0.154222  0.0
0.840135  -0.154274  0.0
0.860076  -0.154315  0.0
0.880034  -0.154347  0.0
0.900006  -0.154371  0.0
0.91999  -0.154389  0.0
0.939984  -0.154403  0.0
0.959986  -0.154411  0.0
0.979992  -0.154415  0.0
0.205431  0.007365  0.0
0.771397  0.012569  0.0
0.503027  -0.13128  0.0
0.075253  -0.015901  0.0
0.348011  -0.052698  0.0
0.231729  -0.099255  0.0
0.014639  -0.005481  0.0
0.145681  -0.049634  0.0
0.088953  -0.05017  0.0
0.046603  -0.022026  0.0
0.016496  -0.009714  0.0
0.01423  -0.001184  0.0
0.043489  -0.006373  0.0
0.014314  -0.003094  0.0
0.07648  0.023719  0.0
0.014271  0.002422  0.0
0.139851  0.022048  0.0
0.074466  0.002991  0.0
0.0434  0.004478  0.0
0.014216  0.000585  0.0
0.015403  0.007807  0.0
0.045306  0.018292  0.0
0.014481  0.004591  0.0
0.352607  0.074896  0.0
0.154204  0.068365  0.0
0.05517  0.034904  0.0
0.201499  0.096115  0.0
0.130837  0.07202  0.0
0.431925  0.11559  0.0
0.294381  0.100824  0.0
0.33652  0.12315  0.0
0.269302  0.112192  0.0
0.470566  0.135292  0.0
0.40321  0.130456  0.0
0.914772  0.087698  0.0
0.633934  0.086657  0.0
0.707294  0.123764  0.0
0.569282  0.121678  0.0
0.606025  0.140242  0.0
0.537857  0.138355  0.0
0.743019  0.141904  0.0
0.674152  0.141328  0.0
0.983507  0.124317  0.0
0.845986  0.124262  0.0
0.881235  0.142305  0.0
0.811853  0.142199  0.0
0.950382  0.142356  0.0
0.95006  0.106091  0.0
0.983367  0.087704  0.0
0.983228  0.050412  0.0
0.843283  0.050381  0.0
0.913707  0.012597  0.0
0.949291  0.031543  0.0
0.983158  0.012613  0.0
0.914285  -0.06301  0.0
0.983176  -0.025322  0.0
0.949378  -0.044234  0.0
0.98327  -0.062987  0.0
0.983419  -0.100056  0.0
0.631443  -0.062149  0.0
0.777161  -0.136242  0.0
0.845079  -0.100057  0.0
0.915696  -0.136472  0.0
0.9502  -0.118359  0.0
0.983523  -0.136458  0.0
0.639473  -0.135073  0.0
0.367692  -0.121513  0.0
0.485791  0.011787  0.0
0.842739  -0.025331  0.0
0.701471  0.050102  0.0
0.774386  0.087569  0.0
0.138971  -0.01078  0.0
0.276237  0.036913  0.0
0.212328  0.056325  0.0
0.493348  0.083418  0.0
0.417131  0.045189  0.0
0.343836  0.010286  0.0
0.559312  0.048846  0.0
0.628687  0.012392  0.0
0.274399  -0.01824  0.0
0.20841  -0.038608  0.0
0.285569  -0.078173  0.0
0.425706  -0.091993  0.0
0.700379  -0.025176  0.0
0.773002  -0.062902  0.0
0.565495  -0.097719  0.0
0.70524  -0.099636  0.0
0.489617  -0.059504  0.0
0.557648  -0.024495  0.0
0.415082  -0.022546  0.0
0.84633  -0.136411  0.0
0.708165  -0.135847  0.0
0.571076  -0.133659  0.0
0.435279  -0.127444  0.0
0.300035  -0.112554  0.0
0.161875  -0.079593  0.0
0.94976  -0.081635  0.0
0.878562  -0.044229  0.0
0.913785  -0.025342  0.0
0.949201  -0.006381  0.0
0.878133  -0.00638  0.0
0.806965  -0.006374  0.0
0.842595  0.012591  0.0
0.807315  0.031509  0.0
0.736188  0.031421  0.0
0.77242  0.050305  0.0
0.879144  0.069124  0.0
0.808607  0.069076  0.0
0.844584  0.087675  0.0
0.738017  0.068917  0.0
0.667359  0.068537  0.0
0.704172  0.087282  0.0
0.880234  0.10608  0.0
0.915505  0.124306  0.0
0.670911  0.105342  0.0
0.601242  0.104397  0.0
0.638193  0.123033  0.0
0.776569  0.124118  0.0
0.740633  0.105815  0.0
0.810411  0.106016  0.0
0.949614  0.06913  0.0
0.914078  0.0504  0.0
0.87835  0.031537  0.0
0.044115  -0.01275  0.0
0.106844  -0.015097  0.0
0.074547  -0.006061  0.0
0.171772  -0.00323  0.0
0.106267  -0.002116  0.0
0.138772  0.005322  0.0
0.043323  -0.000893  0.0
0.240176  0.020833  0.0
0.172301  0.016172  0.0
0.207185  0.030336  0.0
0.313753  0.05516  0.0
0.243784  0.047553  0.0
0.282297  0.067217  0.0
0.174913  0.037369  0.0
0.10795  0.024715  0.0
0.143336  0.041717  0.0
0.392291  0.095291  0.0
0.322448  0.088326  0.0
0.363284  0.109717  0.0
0.112519  0.043066  0.0
0.082728  0.040953  0.0
0.224832  0.087635  0.0
0.18218  0.063225  0.0
0.25238  0.078007  0.0
0.043815  0.010433  0.0
0.074915  0.012418  0.0
0.106539  0.010607  0.0
0.500545  0.119357  0.0
0.461984  0.09984  0.0
0.422989  0.080074  0.0
0.531612  0.102695  0.0
0.563663  0.085473  0.0
0.384273  0.060522  0.0
0.346378  0.041785  0.0
0.309589  0.024459  0.0
0.273962  0.009026  0.0
0.380009  0.027102  0.0
0.451007  0.028919  0.0
0.414573  0.011184  0.0
0.596631  0.067774  0.0
0.630429  0.049665  0.0
0.522282  0.030097  0.0
0.593637  0.030814  0.0
0.557221  0.012168  0.0
0.664957  0.031217  0.0
0.700093  0.012512  0.0
0.488175  0.04744  0.0
0.52584  0.066402  0.0
0.455026  0.064115  0.0
0.239403  -0.004172  0.0
0.205761  -0.014903  0.0
0.172882  -0.022978  0.0
0.140637  -0.02818  0.0
0.241007  -0.029519  0.0
0.310582  -0.034557  0.0
0.277758  -0.046751  0.0
0.108921  -0.030188  0.0
0.077636  -0.028462  0.0
0.116026  -0.051231  0.0
0.186803  -0.073543  0.0
0.316089  -0.066014  0.0
0.386535  -0.072069  0.0
0.355697  -0.086463  0.0
0.257045  -0.089244  0.0
0.326626  -0.099987  0.0
0.3958  -0.107176  0.0
0.464811  -0.111858  0.0
0.215411  -0.06619  0.0
0.245949  -0.057292  0.0
0.1766  -0.045368  0.0
0.735698  -0.006356  0.0
0.77161  -0.025288  0.0
0.665586  -0.043801  0.0
0.73667  -0.044075  0.0
0.702263  -0.062663  0.0
0.807658  -0.044192  0.0
0.843671  -0.06299  0.0
0.598053  -0.080144  0.0
0.668475  -0.080984  0.0
0.63536  -0.098973  0.0
0.53382  -0.1148  0.0
0.602919  -0.116561  0.0
0.672147  -0.117547  0.0
0.741512  -0.118048  0.0
0.879499  -0.081628  0.0
0.915033  -0.100083  0.0
0.810999  -0.118268  0.0
0.880582  -0.118343  0.0
0.775147  -0.099943  0.0
0.809189  -0.081576  0.0
0.738851  -0.081402  0.0
0.495623  -0.095543  0.0
0.52758  -0.078626  0.0
0.56055  -0.061177  0.0
0.457063  -0.076086  0.0
0.41872  -0.056807  0.0
0.594412  -0.043257  0.0
0.629046  -0.024938  0.0
0.664323  -0.006312  0.0
0.592861  -0.006228  0.0
0.521381  -0.006077  0.0
0.381054  -0.038198  0.0
0.344334  -0.020758  0.0
0.45002  -0.005832  0.0
0.379  -0.005455  0.0
0.308649  -0.004912  0.0
0.486273  -0.023742  0.0
0.452015  -0.040683  0.0
0.52319  -0.042286  0.0
0.966972  -0.145466  0.0
0.933272  -0.145349  0.0
0.950352  -0.13648  0.0
0.898636  -0.145462  0.0
0.86338  -0.14542  0.0
0.880997  -0.136452  0.0
0.828936  -0.145229  0.0
0.795303  -0.14525  0.0
0.811735  -0.136344  0.0
0.76027  -0.145122  0.0
0.725321  -0.144881  0.0
0.742623  -0.136083  0.0
0.691902  -0.144464  0.0
0.657796  -0.144204  0.0
0.673796  -0.135521  0.0
0.623068  -0.143653  0.0
0.588585  -0.142882  0.0
0.605223  -0.134465  0.0
0.555642  -0.141866  0.0
0.521882  -0.140784  0.0
0.537026  -0.132619  0.0
0.487619  -0.139216  0.0
0.454096  -0.137143  0.0
0.469106  -0.12958  0.0
0.421627  -0.134905  0.0
0.387833  -0.131934  0.0
0.401485  -0.124795  0.0
0.35398  -0.128205  0.0
0.320798  -0.123601  0.0
0.333887  -0.11748  0.0
0.288472  -0.118439  0.0
0.254572  -0.111775  0.0
0.266017  -0.106557  0.0
0.220368  -0.103606  0.0
0.187061  -0.094012  0.0
0.197071  -0.090381  0.0
0.152508  -0.082339  0.0
0.115797  -0.0674  0.0
0.125875  -0.066386  0.0
0.077187  -0.048506  0.0
0.037678  -0.025233  0.0
0.051463  -0.030536  0.0
0.967446  -0.090875  0.0
0.983342  -0.081609  0.0
0.967295  -0.072339  0.0
0.932071  -0.072344  0.0
0.949549  -0.063011  0.0
0.931808  -0.05364  0.0
0.896444  -0.053637  0.0
0.91399  -0.044234  0.0
0.967069  -0.034797  0.0
0.931609  -0.0348  0.0
0.949261  -0.025343  0.0
0.896138  -0.034798  0.0
0.860654  -0.034791  0.0
0.87827  -0.025339  0.0
0.967024  -0.015862  0.0
0.983157  -0.006365  0.0
0.967001  0.003111  0.0
0.931457  0.003109  0.0
0.949211  0.012598  0.0
0.860405  -0.015863  0.0
0.824836  -0.015856  0.0
0.84256  -0.006378  0.0
0.895907  0.003109  0.0
0.860341  0.003108  0.0
0.87816  0.012596  0.0
0.824755  0.003107  0.0
0.789146  0.003104  0.0
0.807009  0.012583  0.0
0.913688  -0.006381  0.0
0.895954  -0.015866  0.0
0.931488  -0.015868  0.0
0.983219  -0.044213  0.0
0.967172  -0.053634  0.0
0.789339  0.022043  0.0
0.753739  0.022012  0.0
0.771764  0.031475  0.0
0.825303  0.040958  0.0
0.789812  0.040926  0.0
0.807861  0.050354  0.0
0.754299  0.040872  0.0
0.71876  0.040788  0.0
0.736958  0.050225  0.0
0.861236  0.059772  0.0
0.825891  0.05975  0.0
0.843881  0.069109  0.0
0.896994  0.078433  0.0
0.861815  0.078423  0.0
0.879679  0.087692  0.0
0.826631  0.078399  0.0
0.791438  0.078351  0.0
0.809487  0.087637  0.0
0.719754  0.059525  0.0
0.684334  0.059354  0.0
0.702697  0.068763  0.0
0.756235  0.078267  0.0
0.721022  0.078134  0.0
0.739282  0.087457  0.0
0.685796  0.077932  0.0
0.650557  0.07764  0.0
0.669057  0.087024  0.0
0.77332  0.069016  0.0
0.755152  0.059638  0.0
0.790531  0.059709  0.0
0.932471  0.096917  0.0
0.897462  0.096913  0.0
0.915158  0.106088  0.0
0.967623  0.115221  0.0
0.932766  0.11522  0.0
0.950264  0.124311  0.0
0.897917  0.115213  0.0
0.86308  0.115196  0.0
0.880736  0.124291  0.0
0.967749  0.133371  0.0
0.983557  0.14236  0.0
0.968497  0.150687  0.0
0.931824  0.150742  0.0
0.8636  0.133323  0.0
0.828935  0.133275  0.0
0.846561  0.142275  0.0
0.898978  0.149993  0.0
0.866483  0.150678  0.0
0.829681  0.150615  0.0
0.792941  0.150491  0.0
0.91569  0.142336  0.0
0.89829  0.13335  0.0
0.933005  0.133364  0.0
0.652482  0.096031  0.0
0.617495  0.095579  0.0
0.63607  0.104944  0.0
0.68919  0.114586  0.0
0.65449  0.114238  0.0
0.672721  0.123459  0.0
0.619818  0.113754  0.0
0.585173  0.1131  0.0
0.603714  0.122452  0.0
0.725208  0.132883  0.0
0.690739  0.132613  0.0
0.708578  0.141675  0.0
0.760426  0.149621  0.0
0.728042  0.150133  0.0
0.691567  0.149813  0.0
0.655683  0.149265  0.0
0.587743  0.131024  0.0
0.553553  0.130116  0.0
0.571887  0.139425  0.0
0.626751  0.148783  0.0
0.59117  0.148115  0.0
0.555172  0.147087  0.0
0.519866  0.14568  0.0
0.640031  0.140849  0.0
0.622004  0.131716  0.0
0.656336  0.132234  0.0
0.777285  0.142077  0.0
0.759732  0.13307  0.0
0.741912  0.123976  0.0
0.79431  0.133196  0.0
0.811262  0.124208  0.0
0.723919  0.11483  0.0
0.705765  0.105623  0.0
0.687469  0.096354  0.0
0.72246  0.096578  0.0
0.757453  0.096726  0.0
0.828258  0.115162  0.0
0.845318  0.106059  0.0
0.79245  0.096819  0.0
0.827451  0.096873  0.0
0.862455  0.096901  0.0
0.775516  0.10594  0.0
0.793455  0.115099  0.0
0.758674  0.114994  0.0
0.983444  0.106094  0.0
0.967489  0.096918  0.0
0.949835  0.087699  0.0
0.932166  0.078436  0.0
0.914398  0.069129  0.0
0.896567  0.059781  0.0
0.878687  0.050394  0.0
0.931888  0.059784  0.0
0.967208  0.059786  0.0
0.94943  0.050401  0.0
0.860773  0.040975  0.0
0.842842  0.031528  0.0
0.824914  0.022061  0.0
0.860467  0.022071  0.0
0.896  0.022076  0.0
0.967097  0.040987  0.0
0.98319  0.031555  0.0
0.931517  0.022077  0.0
0.967033  0.022081  0.0
0.913841  0.031541  0.0
0.931666  0.040985  0.0
0.896226  0.040982  0.0
0.983295  0.069137  0.0
0.967343  0.078436  0.0
0.028627  -0.009476  0.0
0.014421  -0.004192  0.0
0.059624  -0.014854  0.0
0.028295  -0.007132  0.0
0.043708  -0.009379  0.0
0.090988  -0.015962  0.0
0.059177  -0.010577  0.0
0.074793  -0.010798  0.0
0.122833  -0.013357  0.0
0.090542  -0.010085  0.0
0.106436  -0.008477  0.0
0.058932  -0.006683  0.0
0.02803  -0.003217  0.0
0.04337  -0.003579  0.0
0.155277  -0.007397  0.0
0.12249  -0.006005  0.0
0.138725  -0.002691  0.0
0.188481  0.001697  0.0
0.155164  0.001445  0.0
0.171835  0.006387  0.0
0.122409  0.001172  0.0
0.090268  0.000885  0.0
0.106299  0.004184  0.0
0.027989  -0.001446  0.0
0.014211  -0.000295  0.0
0.058783  0.000586  0.0
0.027973  0.000283  0.0
0.043331  0.001766  0.0
0.074447  -0.001513  0.0
0.058811  -0.003003  0.0
0.09032  -0.004532  0.0
0.014255  -0.002106  0.0
0.028122  -0.005086  0.0
0.222653  0.013753  0.0
0.188772  0.012122  0.0
0.20601  0.018629  0.0
0.258029  0.028569  0.0
0.223587  0.025882  0.0
0.241539  0.033846  0.0
0.18955  0.02285  0.0
0.156  0.019491  0.0
0.17326  0.026393  0.0
0.294813  0.045803  0.0
0.259895  0.042464  0.0
0.278672  0.051664  0.0
0.333035  0.064892  0.0
0.297863  0.061352  0.0
0.317432  0.071414  0.0
0.262804  0.057134  0.0
0.22792  0.052175  0.0
0.247241  0.062214  0.0
0.157125  0.029228  0.0
0.123839  0.023805  0.0
0.141135  0.031317  0.0
0.193294  0.046431  0.0
0.159037  0.039896  0.0
0.17765  0.049495  0.0
0.12528  0.032617  0.0
0.092169  0.024713  0.0
0.109551  0.033066  0.0
0.209167  0.042791  0.0
0.190963  0.034173  0.0
0.225251  0.038591  0.0
0.372393  0.085063  0.0
0.337311  0.081727  0.0
0.357394  0.092164  0.0
0.412179  0.105491  0.0
0.377549  0.102609  0.0
0.397619  0.112967  0.0
0.342864  0.099052  0.0
0.308101  0.094693  0.0
0.328886  0.105717  0.0
0.451397  0.125541  0.0
0.417444  0.123167  0.0
0.436848  0.13314  0.0
0.491417  0.144352  0.0
0.456446  0.14242  0.0
0.421089  0.139827  0.0
0.386409  0.13655  0.0
0.31556  0.112133  0.0
0.28143  0.106696  0.0
0.302937  0.118211  0.0
0.358436  0.133423  0.0
0.323987  0.128851  0.0
0.289067  0.123031  0.0
0.257607  0.116091  0.0
0.369856  0.127159  0.0
0.349567  0.116588  0.0
0.383512  0.120221  0.0
0.093939  0.032585  0.0
0.060861  0.021624  0.0
0.07843  0.031067  0.0
0.132543  0.055102  0.0
0.097463  0.042478  0.0
0.118475  0.055774  0.0
0.062997  0.028361  0.0
0.029657  0.013498  0.0
0.047606  0.024252  0.0
0.177369  0.082268  0.0
0.141697  0.070382  0.0
0.166601  0.085294  0.0
0.226969  0.109318  0.0
0.191472  0.099087  0.0
0.155212  0.086428  0.0
0.121165  0.071901  0.0
0.032021  0.018335  0.0
0.017631  0.011121  0.0
0.086898  0.05541  0.0
0.042899  0.029604  0.0
0.093992  0.055694  0.0
0.06847  0.038425  0.0
0.105349  0.055919  0.0
0.235701  0.10496  0.0
0.212457  0.092039  0.0
0.189673  0.078893  0.0
0.247099  0.100079  0.0
0.259716  0.094865  0.0
0.167825  0.065999  0.0
0.147199  0.053839  0.0
0.127823  0.042791  0.0
0.162267  0.051968  0.0
0.197057  0.060006  0.0
0.27323  0.089385  0.0
0.287443  0.083652  0.0
0.232038  0.066914  0.0
0.267109  0.072765  0.0
0.302211  0.077665  0.0
0.217276  0.071245  0.0
0.238228  0.082959  0.0
0.203085  0.075229  0.0
0.014752  0.005967  0.0
0.028788  0.010341  0.0
0.044315  0.013973  0.0
0.059839  0.016379  0.0
0.075471  0.017693  0.0
0.028173  0.005734  0.0
0.059295  0.011925  0.0
0.043543  0.007328  0.0
0.091202  0.017997  0.0
0.107044  0.017361  0.0
0.028047  0.003815  0.0
0.014233  0.001482  0.0
0.027995  0.00202  0.0
0.058839  0.004193  0.0
0.123012  0.015843  0.0
0.139122  0.013486  0.0
0.090373  0.006328  0.0
0.122571  0.008383  0.0
0.155389  0.010325  0.0
0.074609  0.007584  0.0
0.090659  0.011964  0.0
0.058995  0.007928  0.0
0.01434  0.00344  0.0
0.028379  0.007858  0.0
0.504156  0.136987  0.0
0.485389  0.127438  0.0
0.466227  0.11769  0.0
0.519436  0.12894  0.0
0.534894  0.120665  0.0
0.446779  0.107806  0.0
0.427151  0.097818  0.0
0.407454  0.087777  0.0
0.387798  0.077753  0.0
0.442494  0.089964  0.0
0.477515  0.091707  0.0
0.458174  0.081938  0.0
0.550554  0.112233  0.0
0.566424  0.103662  0.0
0.512521  0.093081  0.0
0.547518  0.094148  0.0
0.528511  0.084578  0.0
0.582508  0.094965  0.0
0.598803  0.086152  0.0
0.496801  0.101442  0.0
0.515953  0.111103  0.0
0.481365  0.10965  0.0
0.368276  0.067828  0.0
0.348969  0.058093  0.0
0.329933  0.048638  0.0
0.311205  0.039551  0.0
0.365199  0.051013  0.0
0.400566  0.052975  0.0
0.381701  0.043651  0.0
0.292803  0.030908  0.0
0.274726  0.022775  0.0
0.256963  0.015207  0.0
0.239496  0.008247  0.0
0.291634  0.016482  0.0
0.3266  0.01758  0.0
0.308763  0.009705  0.0
0.398458  0.036012  0.0
0.433949  0.037168  0.0
0.415457  0.028102  0.0
0.361799  0.018512  0.0
0.397177  0.019291  0.0
0.379123  0.010777  0.0
0.432688  0.019933  0.0
0.468292  0.020454  0.0
0.450141  0.011518  0.0
0.344703  0.025895  0.0
0.363073  0.034604  0.0
0.327837  0.032912  0.0
0.615304  0.077233  0.0
0.632004  0.068216  0.0
0.577954  0.058303  0.0
0.613432  0.058767  0.0
0.594878  0.049315  0.0
0.648893  0.059109  0.0
0.665961  0.049921  0.0
0.540744  0.039433  0.0
0.576376  0.039884  0.0
0.557958  0.030503  0.0
0.503957  0.020871  0.0
0.539655  0.021199  0.0
0.521493  0.012001  0.0
0.575368  0.021453  0.0
0.61108  0.021645  0.0
0.592957  0.012296  0.0
0.683197  0.040661  0.0
0.700585  0.031338  0.0
0.646779  0.021788  0.0
0.682457  0.021891  0.0
0.664402  0.012462  0.0
0.718111  0.021963  0.0
0.735759  0.012547  0.0
0.629306  0.031047  0.0
0.647609  0.040479  0.0
0.612  0.040226  0.0
0.486625  0.029576  0.0
0.505117  0.038848  0.0