# vtk DataFile Version 3.1
for FEM Programme igpoints output
ASCII
DATASET POLYDATA
POINTS 7788 double
 49.508367 47.005039 0.0
 49.648041 45.109344 0.0
 45.191734 49.493278 0.0
 45.754337 47.492414 0.0
 44.146419 47.394757 0.0
 44.893979 47.89325 0.0
 46.717554 46.013907 0.0
 47.554988 44.517798 0.0
 45.891849 44.527317 0.0
 46.732086 45.016992 0.0
 43.320831 46.009782 0.0
 44.178276 44.52747 0.0
 42.451938 44.529608 0.0
 43.315204 45.02523 0.0
 45.035371 45.024222 0.0
 44.164831 46.49391 0.0
 45.858244 46.506121 0.0
 45.016297 46.006111 0.0
 48.288416 44.950842 0.0
 47.596946 46.511961 0.0
 49.156408 46.114383 0.0
 48.344907 45.94809 0.0
 46.534993 48.011283 0.0
 46.301579 49.004734 0.0
 44.56479 48.900663 0.0
 47.109845 49.511457 0.0
 49.608622 48.89954 0.0
 49.116988 47.904579 0.0
 48.941955 49.566207 0.0
 48.051801 49.077664 0.0
 47.518292 47.523044 0.0
 48.226834 48.082703 0.0
 38.987496 47.525442 0.0
 37.195379 47.524755 0.0
 38.079093 48.021829 0.0
 39.85943 46.030747 0.0
 40.720175 44.532253 0.0
 38.984989 44.53272 0.0
 39.8537 45.032071 0.0
 36.363861 46.0302 0.0
 37.248503 44.532636 0.0
 35.513973 44.532098 0.0
 36.378163 45.031896 0.0
 38.115782 45.032462 0.0
 37.228844 46.529434 0.0
 38.985362 46.52989 0.0
 38.110425 46.030956 0.0
 31.537897 48.901789 0.0
 32.054802 47.397598 0.0
 30.434586 47.493861 0.0
 31.279808 47.895318 0.0
 32.907013 46.01041 0.0
 33.782561 44.529777 0.0
 32.054495 44.528049 0.0
 32.91709 45.02584 0.0
 29.482674 46.02648 0.0
 30.326841 44.529809 0.0
 28.593945 44.532112 0.0
 29.46406 45.029398 0.0
 31.192608 45.026084 0.0
 30.35777 46.509607 0.0
 32.056734 46.495335 0.0
 31.204924 46.008801 0.0
 34.64505 45.029793 0.0
 33.75092 46.509034 0.0
 35.478108 46.52509 0.0
 34.623487 46.024481 0.0
 32.817375 47.893745 0.0
 32.520963 48.898878 0.0
 30.854751 49.492587 0.0
 33.171151 49.489676 0.0
 36.260472 48.018383 0.0
 36.146992 49.009171 0.0
 35.099053 49.503176 0.0
 37.047939 49.505995 0.0
 38.045133 49.012281 0.0
 34.270204 48.992851 0.0
 35.408184 47.517952 0.0
 33.663213 47.490107 0.0
 34.465855 47.998416 0.0
 41.588087 45.02978 0.0
 40.739613 46.526481 0.0
 42.471274 46.509712 0.0
 41.601795 46.025333 0.0
 39.898796 48.020639 0.0
 39.942455 49.011032 0.0
 38.997194 49.506286 0.0
 43.362237 47.892993 0.0
 43.58473 48.898209 0.0
 40.945261 49.504746 0.0
 42.87834 49.490824 0.0
 41.823602 48.99557 0.0
 42.531091 47.492076 0.0
 40.776846 47.520821 0.0
 41.698845 48.002037 0.0
 25.094848 47.525489 0.0
 23.306096 47.520927 0.0
 24.172891 48.020392 0.0
 25.990564 46.031542 0.0
 26.857968 44.532889 0.0
 25.121909 44.532793 0.0
 25.98999 45.032606 0.0
 22.499093 46.025829 0.0
 23.385912 44.531975 0.0
 21.653495 44.529938 0.0
 22.51629 45.029612 0.0
 24.251775 45.032074 0.0
 23.357345 46.52637 0.0
 25.111114 46.529907 0.0
 24.240405 46.030252 0.0
 17.720815 48.992887 0.0
 18.324225 47.486853 0.0
 16.576778 47.516951 0.0
 17.521466 47.997417 0.0
 19.075953 46.007362 0.0
 19.925866 44.527664 0.0
 18.198225 44.528651 0.0
 19.064258 45.024733 0.0
 15.617736 46.029446 0.0
 16.466833 44.531372 0.0
 14.731545 44.532532 0.0
 15.603001 45.031203 0.0
 17.336685 45.028209 0.0
 16.506303 46.523317 0.0
 18.234655 46.504983 0.0
 17.36142 46.021912 0.0
 20.788133 45.026182 0.0
 19.927752 46.492821 0.0
 21.626488 46.508683 0.0
 20.778323 46.008711 0.0
 19.173271 47.887338 0.0
 18.824984 49.48954 0.0
 16.895831 49.503347 0.0
 19.47468 48.894554 0.0
 22.373791 48.002055 0.0
 22.21701 48.995174 0.0
 21.141775 49.490343 0.0
 23.075235 49.504831 0.0
 24.098811 49.011177 0.0
 20.458137 48.895358 0.0
 21.552434 47.490353 0.0
 19.935499 47.390927 0.0
 20.712016 47.888486 0.0
 10.152866 49.010159 0.0
 11.202064 47.524889 0.0
 9.416898 47.519007 0.0
 10.26722 48.019041 0.0
 12.120726 46.031406 0.0
 12.994868 44.532883 0.0
 11.258739 44.532678 0.0
 12.125548 45.032531 0.0
 8.633046 46.02485 0.0
 9.523293 44.53172 0.0
 7.791922 44.529956 0.0
 8.653469 45.029372 0.0
 10.38778 45.031772 0.0
 9.485605 46.525074 0.0
 11.236653 46.529429 0.0
 10.370516 46.029648 0.0
 3.779837 48.998082 0.0
 4.44282 47.49515 0.0
 2.687679 47.521036 0.0
 3.622488 48.004495 0.0
 5.213374 46.011477 0.0
 6.064859 44.528504 0.0
 4.336633 44.529824 0.0
 5.202757 45.026345 0.0
 1.749184 46.030828 0.0
 2.604302 44.532114 0.0
 0.868629 44.5328 0.0
 1.739166 45.031958 0.0
 3.474005 45.029689 0.0
 2.634767 46.526423 0.0
 4.367696 46.510395 0.0
 3.494453 46.025128 0.0
 6.926823 45.026814 0.0
 6.064218 46.496847 0.0
 7.760241 46.508645 0.0
 6.915566 46.010025 0.0
 5.286486 47.896485 0.0
 5.542707 48.901004 0.0
 2.923448 49.504826 0.0
 4.85639 49.493256 0.0
 8.474648 47.999501 0.0
 8.274978 48.993385 0.0
 7.172104 49.489376 0.0
 9.102874 49.504009 0.0
 6.525087 48.897124 0.0
 7.670551 47.489363 0.0
 6.062207 47.3971 0.0
 6.823865 47.890995 0.0
 13.864411 45.032559 0.0
 12.996001 46.53039 0.0
 14.752235 46.529406 0.0
 13.870366 46.031191 0.0
 12.086276 48.022266 0.0
 11.049992 49.506149 0.0
 12.048557 49.012408 0.0
 15.725804 48.018148 0.0
 15.845507 49.009074 0.0
 12.998565 49.506259 0.0
 14.949676 49.505726 0.0
 13.948241 49.011985 0.0
 14.789827 47.524474 0.0
 12.996139 47.525789 0.0
 13.908096 48.021659 0.0
 27.728166 45.032298 0.0
 26.870271 46.530291 0.0
 28.624287 46.52766 0.0
 27.739894 46.030764 0.0
 25.993594 48.022524 0.0
 25.023576 49.506346 0.0
 29.615251 48.004761 0.0
 25.996402 49.012596 0.0
 29.777328 48.997015 0.0
 26.972826 49.50625 0.0
 28.922577 49.504428 0.0
 27.895403 49.010678 0.0
 28.680048 47.521687 0.0
 26.889566 47.525691 0.0
 27.814951 48.020191 0.0
 -3.778412 48.996721 0.0
 -2.686158 47.520431 0.0
 -4.440541 47.491652 0.0
 -3.620584 48.002627 0.0
 -1.748512 46.030755 0.0
 -0.868152 44.532836 0.0
 -2.603916 44.53212 0.0
 -1.738426 45.032054 0.0
 -5.21184 46.008977 0.0
 -4.336428 44.529383 0.0
 -6.064721 44.527602 0.0
 -5.202594 45.025282 0.0
 -3.473578 45.029432 0.0
 -4.365691 46.508067 0.0
 -2.634019 46.525811 0.0
 -3.493595 46.024421 0.0
 -10.152011 49.009549 0.0
 -9.416173 47.517649 0.0
 -11.200991 47.524572 0.0
 -10.266186 48.018271 0.0
 -8.632308 46.023338 0.0
 -7.79187 44.529222 0.0
 -9.523129 44.531413 0.0
 -8.653367 45.028523 0.0
 -12.120051 46.031325 0.0
 -11.258309 44.532582 0.0
 -12.994403 44.532867 0.0
 -12.124724 45.032427 0.0
 -10.387284 45.031473 0.0
 -11.236192 46.529196 0.0
 -9.484626 46.523944 0.0
 -10.36984 46.02919 0.0
 -6.926785 45.025494 0.0
 -7.758294 46.505506 0.0
 -6.06145 46.492766 0.0
 -6.914268 46.006964 0.0
 -8.472961 47.998199 0.0
 -8.273947 48.99284 0.0
 -11.049027 49.505981 0.0
 -9.102984 49.503568 0.0
 -5.280298 47.890109 0.0
 -5.537926 48.89619 0.0
 -6.519559 48.893635 0.0
 -4.855997 49.491828 0.0
 -7.170963 49.489272 0.0
 -6.055057 47.390312 0.0
 -7.6674 47.486662 0.0
 -6.816982 47.885666 0.0
 -17.72094 48.993154 0.0
 -16.576037 47.51729 0.0
 -18.325454 47.48694 0.0
 -17.521639 47.997729 0.0
 -15.617442 46.029739 0.0
 -14.731108 44.532647 0.0
 -16.466634 44.531591 0.0
 -15.602419 45.031515 0.0
 -19.07684 46.007413 0.0
 -18.198608 44.528758 0.0
 -19.926511 44.527536 0.0
 -19.065201 45.024725 0.0
 -17.33684 45.028516 0.0
 -18.235035 46.505204 0.0
 -16.506445 46.523572 0.0
 -17.361628 46.022274 0.0
 -24.098337 49.010953 0.0
 -23.306263 47.520613 0.0
 -25.094095 47.525352 0.0
 -24.172365 48.020132 0.0
 -22.499388 46.025392 0.0
 -21.653911 44.529743 0.0
 -23.38589 44.531864 0.0
 -22.516636 45.029326 0.0
 -25.989942 46.031531 0.0
 -25.121554 44.532744 0.0
 -26.857576 44.532902 0.0
 -25.989293 45.03257 0.0
 -24.251415 45.031937 0.0
 -25.110765 46.52984 0.0
 -23.357205 46.526064 0.0
 -24.239977 46.030071 0.0
 -20.789068 45.02589 0.0
 -21.627098 46.508194 0.0
 -19.928584 46.492609 0.0
 -20.779503 46.008275 0.0
 -22.373654 48.002902 0.0
 -22.216889 48.996199 0.0
 -25.022867 49.506222 0.0
 -23.07547 49.504731 0.0
 -19.173523 47.886694 0.0
 -19.474898 48.893853 0.0
 -21.141419 49.491468 0.0
 -18.82613 49.489525 0.0
 -20.456853 48.895796 0.0
 -19.934848 47.390153 0.0
 -21.552306 47.491155 0.0
 -20.710975 47.88878 0.0
 -13.863637 45.032636 0.0
 -14.751964 46.529523 0.0
 -12.995563 46.530416 0.0
 -13.86947 46.031288 0.0
 -15.724949 48.018594 0.0
 -15.844421 49.009509 0.0
 -16.89481 49.50363 0.0
 -14.949611 49.505879 0.0
 -13.948797 49.012012 0.0
 -12.086002 48.021984 0.0
 -12.048214 49.012114 0.0
 -12.999187 49.506133 0.0
 -12.996716 47.525698 0.0
 -14.78988 47.52466 0.0
 -13.908538 48.021708 0.0
 -31.538907 48.902313 0.0
 -30.4347 47.494755 0.0
 -32.055704 47.397237 0.0
 -31.280905 47.895906 0.0
 -29.482545 46.02665 0.0
 -28.593691 44.53231 0.0
 -30.327003 44.530072 0.0
 -29.464004 45.029828 0.0
 -32.907484 46.01025 0.0
 -32.054926 44.527994 0.0
 -33.782762 44.52952 0.0
 -32.917703 45.025554 0.0
 -31.193181 45.026285 0.0
 -32.057135 46.495477 0.0
 -30.357972 46.509681 0.0
 -31.205609 46.009071 0.0
 -38.044443 49.01247 0.0
 -37.194804 47.525027 0.0
 -38.987192 47.525794 0.0
 -38.078319 48.02208 0.0
 -36.363362 46.03017 0.0
 -35.513914 44.531987 0.0
 -37.248267 44.532642 0.0
 -36.377883 45.031788 0.0
 -39.859637 46.031385 0.0
 -38.984785 44.532825 0.0
 -40.720532 44.532705 0.0
 -39.853692 45.032515 0.0
 -38.115336 45.032529 0.0
 -38.985267 46.530246 0.0
 -37.228282 46.529576 0.0
 -38.109873 46.031081 0.0
 -34.645173 45.029454 0.0
 -35.477719 46.525097 0.0
 -33.750869 46.508945 0.0
 -34.623499 46.024182 0.0
 -36.261179 48.019303 0.0
 -36.147945 49.010021 0.0
 -38.996749 49.506335 0.0
 -37.047694 49.506135 0.0
 -32.817068 47.893184 0.0
 -33.170029 49.489539 0.0
 -35.100251 49.503886 0.0
 -32.520743 48.898217 0.0
 -34.270281 48.993425 0.0
 -33.661885 47.490117 0.0
 -35.409015 47.518779 0.0
 -34.465811 47.999036 0.0
 -45.469282 48.896328 0.0
 -44.315676 47.48624 0.0
 -45.929167 47.390812 0.0
 -45.166897 47.887307 0.0
 -43.347876 46.023017 0.0
 -42.455809 44.531533 0.0
 -44.187183 44.528603 0.0
 -43.326097 45.028129 0.0
 -46.748607 45.997246 0.0
 -45.902225 44.524835 0.0
 -47.561207 44.515389 0.0
 -46.74607 45.013004 0.0
 -45.051171 45.023265 0.0
 -45.920154 46.48952 0.0
 -44.224354 46.503934 0.0
[...]
POINT_DATA 7788
VECTORS displacement double
0.995079  -0.145423  0.0
0.996475  -0.139725  0.0
0.951899  -0.152887  0.0
0.957511  -0.146883  0.0
0.941422  -0.146584  0.0
0.948907  -0.148084  0.0
0.967135  -0.142443  0.0
0.975506  -0.137945  0.0
0.958846  -0.137972  0.0
0.967269  -0.139446  0.0
0.933135  -0.142422  0.0
0.941684  -0.137968  0.0
0.924397  -0.137969  0.0
0.933054  -0.139462  0.0
0.950277  -0.139464  0.0
0.941591  -0.143879  0.0
0.958539  -0.143921  0.0
0.950104  -0.142416  0.0
0.982856  -0.139248  0.0
0.975943  -0.143941  0.0
0.991554  -0.142747  0.0
0.983427  -0.142247  0.0
0.965326  -0.148443  0.0
0.962997  -0.151424  0.0
0.945624  -0.151106  0.0
0.971085  -0.152947  0.0
0.996084  -0.151113  0.0
0.991163  -0.148125  0.0
0.989414  -0.153114  0.0
0.980508  -0.151647  0.0
0.975163  -0.146978  0.0
0.982256  -0.14866  0.0
0.88984  -0.146943  0.0
0.871936  -0.14692  0.0
0.880779  -0.148421  0.0
0.898506  -0.142465  0.0
0.907061  -0.137969  0.0
0.889697  -0.137959  0.0
0.898411  -0.139466  0.0
0.863565  -0.142429  0.0
0.872326  -0.137943  0.0
0.854984  -0.137922  0.0
0.863653  -0.139433  0.0
0.881027  -0.139453  0.0
0.872231  -0.143937  0.0
0.889785  -0.143956  0.0
0.881019  -0.142451  0.0
0.815569  -0.150926  0.0
0.820641  -0.146443  0.0
0.804505  -0.146685  0.0
0.812949  -0.14791  0.0
0.829049  -0.142311  0.0
0.837682  -0.137888  0.0
0.820423  -0.137849  0.0
0.829077  -0.13936  0.0
0.794907  -0.142267  0.0
0.80318  -0.137812  0.0
0.785897  -0.137765  0.0
0.794626  -0.139283  0.0
0.811865  -0.139322  0.0
0.803667  -0.14374  0.0
0.820601  -0.143743  0.0
0.812071  -0.142265  0.0
0.846334  -0.139403  0.0
0.837502  -0.143822  0.0
0.854744  -0.1439  0.0
0.846183  -0.142386  0.0
0.828269  -0.147946  0.0
0.825362  -0.150944  0.0
0.808796  -0.152669  0.0
0.831862  -0.152727  0.0
0.86262  -0.148386  0.0
0.861519  -0.151351  0.0
0.851079  -0.15281  0.0
0.870521  -0.152853  0.0
0.880465  -0.151388  0.0
0.842799  -0.151267  0.0
0.854093  -0.146874  0.0
0.836682  -0.146758  0.0
0.844712  -0.148295  0.0
0.915766  -0.139469  0.0
0.907325  -0.14396  0.0
0.924646  -0.143919  0.0
0.915934  -0.14246  0.0
0.89896  -0.148436  0.0
0.899416  -0.151406  0.0
0.889982  -0.15288  0.0
0.933585  -0.148077  0.0
0.935822  -0.151094  0.0
0.909444  -0.152895  0.0
0.928765  -0.152868  0.0
0.918216  -0.151376  0.0
0.925265  -0.146869  0.0
0.907724  -0.146944  0.0
0.916952  -0.148394  0.0
0.751413  -0.14655  0.0
0.733667  -0.146425  0.0
0.742317  -0.147968  0.0
0.760148  -0.142142  0.0
0.768598  -0.137702  0.0
0.751312  -0.137621  0.0
0.76002  -0.139157  0.0
0.725464  -0.141918  0.0
0.734042  -0.13752  0.0
0.716824  -0.137397  0.0
0.72548  -0.138949  0.0
0.742728  -0.139065  0.0
0.734051  -0.143468  0.0
0.751465  -0.143583  0.0
0.742753  -0.142044  0.0
0.678642  -0.150279  0.0
0.68436  -0.145889  0.0
0.667119  -0.145773  0.0
0.676523  -0.14731  0.0
0.691531  -0.141575  0.0
0.69967  -0.13725  0.0
0.682536  -0.137088  0.0
0.691225  -0.138652  0.0
0.657344  -0.141242  0.0
0.665384  -0.136902  0.0
0.648214  -0.136679  0.0
0.65696  -0.138279  0.0
0.674112  -0.138481  0.0
0.666226  -0.142821  0.0
0.6833  -0.142967  0.0
0.674571  -0.141436  0.0
0.708321  -0.138809  0.0
0.70005  -0.143099  0.0
0.716882  -0.143291  0.0
0.708395  -0.141735  0.0
0.692812  -0.147166  0.0
0.689592  -0.151874  0.0
0.670593  -0.151684  0.0
0.695925  -0.150182  0.0
0.724486  -0.147789  0.0
0.723042  -0.150726  0.0
0.712463  -0.152105  0.0
0.731583  -0.152304  0.0
0.741676  -0.15091  0.0
0.705641  -0.150279  0.0
0.716287  -0.146204  0.0
0.700272  -0.145767  0.0
0.708023  -0.147316  0.0
0.604363  -0.149079  0.0
0.614251  -0.144934  0.0
0.59675  -0.144538  0.0
0.605222  -0.146195  0.0
0.622866  -0.140702  0.0
0.63105  -0.136415  0.0
0.613913  -0.136109  0.0
0.62262  -0.137748  0.0
0.588579  -0.13996  0.0
0.596804  -0.135754  0.0
0.579757  -0.135345  0.0
0.588423  -0.137028  0.0
0.605493  -0.137415  0.0
0.597114  -0.141629  0.0
0.614312  -0.142007  0.0
0.605647  -0.140359  0.0
0.542304  -0.147258  0.0
0.548153  -0.143099  0.0
0.531084  -0.142562  0.0
0.540382  -0.144309  0.0
0.55506  -0.138995  0.0
0.562775  -0.134881  0.0
0.545806  -0.134363  0.0
0.55453  -0.136095  0.0
0.521228  -0.137851  0.0
0.528818  -0.133776  0.0
0.51182  -0.133106  0.0
0.52061  -0.134919  0.0
0.537588  -0.135547  0.0
0.530108  -0.139637  0.0
0.547008  -0.140191  0.0
0.53826  -0.138476  0.0
0.571452  -0.136588  0.0
0.563583  -0.140673  0.0
0.580191  -0.141169  0.0
0.571729  -0.139481  0.0
0.556533  -0.144541  0.0
0.559382  -0.147555  0.0
0.534208  -0.148421  0.0
0.552925  -0.149062  0.0
0.587678  -0.145726  0.0
0.586024  -0.148587  0.0
0.575427  -0.149745  0.0
0.594238  -0.150284  0.0
0.568946  -0.147834  0.0
0.579654  -0.144027  0.0
0.563911  -0.143312  0.0
0.571519  -0.144977  0.0
0.63978  -0.138035  0.0
0.631619  -0.142329  0.0
0.648921  -0.142602  0.0
0.640104  -0.140995  0.0
0.623054  -0.146568  0.0
0.613251  -0.150724  0.0
0.622913  -0.149474  0.0
0.658829  -0.147142  0.0
0.660183  -0.150085  0.0
0.632323  -0.151099  0.0
0.651462  -0.151419  0.0
0.641541  -0.149807  0.0
0.649513  -0.14555  0.0
0.631869  -0.145268  0.0
0.640946  -0.146881  0.0
0.777327  -0.139231  0.0
0.768952  -0.143672  0.0
0.786404  -0.143736  0.0
0.777552  -0.142217  0.0
0.760384  -0.148079  0.0
0.75088  -0.152441  0.0
0.796383  -0.148184  0.0
0.760491  -0.151028  0.0
0.798053  -0.151152  0.0
0.770215  -0.152549  0.0
0.789581  -0.152632  0.0
0.779346  -0.151117  0.0
0.787043  -0.146707  0.0
0.769239  -0.146643  0.0
0.778478  -0.148159  0.0
0.469384  -0.143818  0.0
0.478997  -0.140157  0.0
0.462041  -0.139087  0.0
0.470281  -0.141041  0.0
0.487169  -0.136307  0.0
0.494831  -0.132348  0.0
0.477873  -0.131493  0.0
0.486645  -0.133394  0.0
0.453533  -0.134317  0.0
0.460964  -0.13053  0.0
0.444113  -0.129458  0.0
0.452892  -0.131458  0.0
0.469729  -0.132481  0.0
0.462088  -0.13628  0.0
0.478881  -0.137296  0.0
0.470212  -0.135372  0.0
0.408469  -0.139356  0.0
0.414185  -0.13569  0.0
0.397075  -0.134184  0.0
0.406491  -0.136421  0.0
0.420426  -0.131991  0.0
0.427292  -0.128275  0.0
0.410444  -0.126955  0.0
0.419349  -0.129087  0.0
0.38674  -0.12903  0.0
0.393567  -0.125479  0.0
0.376686  -0.123836  0.0
0.385661  -0.126132  0.0
0.402518  -0.127692  0.0
0.395766  -0.131285  0.0
0.412641  -0.132768  0.0
0.403638  -0.1306  0.0
0.436123  -0.130333  0.0
0.429282  -0.134042  0.0
0.445668  -0.135179  0.0
0.437036  -0.133195  0.0
0.423644  -0.137815  0.0
0.426351  -0.14082  0.0
0.400396  -0.139984  0.0
0.418869  -0.14163  0.0
0.454221  -0.139726  0.0
0.452449  -0.142459  0.0
0.443034  -0.141802  0.0
0.459372  -0.144599  0.0
0.43725  -0.143053  0.0
0.446405  -0.13778  0.0
0.430957  -0.136943  0.0
0.439447  -0.138698  0.0
0.3367  -0.13121  0.0
0.345648  -0.128467  0.0
0.328895  -0.126111  0.0
0.337255  -0.128642  0.0
0.352997  -0.12534  0.0
0.359799  -0.122011  0.0
0.342917  -0.119989  0.0
0.351929  -0.12247  0.0
0.319589  -0.120811  0.0
0.326055  -0.117752  0.0
0.309214  -0.115291  0.0
0.318309  -0.117988  0.0
0.335097  -0.120338  0.0
0.328401  -0.123416  0.0
0.34505  -0.1257  0.0
0.336163  -0.123179  0.0
0.276492  -0.121161  0.0
0.281318  -0.118373  0.0
0.264189  -0.114999  0.0
0.273947  -0.118202  0.0
0.286528  -0.115494  0.0
0.292355  -0.112589  0.0
0.275411  -0.109599  0.0
0.284726  -0.112583  0.0
0.252643  -0.108858  0.0
0.258376  -0.10629  0.0
0.241268  -0.102637  0.0
0.250757  -0.105961  0.0
0.267788  -0.10944  0.0
0.262135  -0.112099  0.0
0.279086  -0.115423  0.0
0.269661  -0.112352  0.0
0.30155  -0.115417  0.0
0.295747  -0.118355  0.0
0.312085  -0.120969  0.0
0.30314  -0.118271  0.0
0.291065  -0.12139  0.0
0.29423  -0.12448  0.0
0.268733  -0.120774  0.0
0.287029  -0.124421  0.0
0.321365  -0.12607  0.0
0.319993  -0.128501  0.0
0.305175  -0.127649  0.0
0.326967  -0.13111  0.0
0.310684  -0.12704  0.0
0.313367  -0.123533  0.0
0.298051  -0.1213  0.0
0.306726  -0.123781  0.0
0.368795  -0.124397  0.0
0.36193  -0.127765  0.0
0.378828  -0.129618  0.0
0.369859  -0.127281  0.0
0.354392  -0.130924  0.0
0.354462  -0.133604  0.0
0.345163  -0.133715  0.0
0.363503  -0.136043  0.0
0.372414  -0.135741  0.0
0.389101  -0.13479  0.0
0.390444  -0.137655  0.0
0.381929  -0.138126  0.0
0.37988  -0.13248  0.0
0.362727  -0.130582  0.0
0.371708  -0.13296  0.0
0.205522  -0.103557  0.0
0.212529  -0.102525  0.0
0.196399  -0.097678  0.0
0.20529  -0.101367  0.0
0.218427  -0.100745  0.0
0.224071  -0.098608  0.0
0.206792  -0.094166  0.0
0.21645  -0.097886  0.0
0.18437  -0.091043  0.0
0.189437  -0.089286  0.0
0.171934  -0.083913  0.0
0.181869  -0.088123  0.0
0.199206  -0.093231  0.0
0.194076  -0.095042  0.0
0.210907  -0.099861  0.0
0.201345  -0.096067  0.0
0.142082  -0.081471  0.0
0.145397  -0.080451  0.0
0.126893  -0.072904  0.0
0.13806  -0.078342  0.0
0.14937  -0.079216  0.0
0.154213  -0.077962  0.0
0.136237  -0.071354  0.0
0.146534  -0.076213  0.0
0.112766  -0.064365  0.0
0.117986  -0.064014  0.0
0.099473  -0.055863  0.0
0.110009  -0.061462  0.0
0.128424  -0.069233  0.0
0.12358  -0.069889  0.0
0.141909  -0.077329  0.0
0.13126  -0.072204  0.0
0.164336  -0.082483  0.0
0.159827  -0.083968  0.0
0.177212  -0.089836  0.0
0.167113  -0.085487  0.0
0.156489  -0.085537  0.0
0.160968  -0.088896  0.0
0.134494  -0.078883  0.0
0.153897  -0.08694  0.0
0.190282  -0.096857  0.0
0.191492  -0.100392  0.0
0.172921  -0.094088  0.0
0.195989  -0.100672  0.0
0.179318  -0.095425  0.0
0.180801  -0.093014  0.0
0.163458  -0.087167  0.0
0.174334  -0.091863  0.0
0.061257  -0.040742  0.0
0.068372  -0.044026  0.0
0.048892  -0.032512  0.0
0.059869  -0.039528  0.0
0.0746  -0.045746  0.0
0.080699  -0.046812  0.0
0.061771  -0.036837  0.0
0.072268  -0.043162  0.0
0.035891  -0.023118  0.0
0.043004  -0.026111  0.0
0.025108  -0.015219  0.0
0.034396  -0.02131  0.0
0.05316  -0.032581  0.0
0.046452  -0.030171  0.0
0.066055  -0.041673  0.0
0.055112  -0.034833  0.0
0.009104  -0.005762  0.0
0.003644  -0.002238  0.0
0.017689  -0.010853  0.0
0.026566  -0.017313  0.0
0.01765  -0.01114  0.0
0.00546  -0.003524  0.0
0.005116  -0.003379  0.0
0.041288  -0.028112  0.0
0.049223  -0.033346  0.0
0.01691  -0.011503  0.0
0.043791  -0.0298  0.0
0.028413  -0.019534  0.0
0.029522  -0.019966  0.0
0.010576  -0.006903  0.0
0.022079  -0.014935  0.0
0.091283  -0.052803  0.0
0.085619  -0.052175  0.0
0.104819  -0.061545  0.0
0.093871  -0.055583  0.0
0.079638  -0.050734  0.0
0.082095  -0.052723  0.0
0.072217  -0.047229  0.0
0.093898  -0.05929  0.0
0.119134  -0.070233  0.0
0.114554  -0.06974  0.0
0.122714  -0.073082  0.0
0.102747  -0.063563  0.0
0.107874  -0.064398  0.0
0.088341  -0.05481  0.0
0.099647  -0.06107  0.0
0.233645  -0.102122  0.0
0.22796  -0.104343  0.0
0.245066  -0.10841  0.0
0.235557  -0.104999  0.0
0.221727  -0.106154  0.0
0.222623  -0.108588  0.0
0.213658  -0.107149  0.0
0.231993  -0.112168  0.0
0.256551  -0.114586  0.0
0.250377  -0.116701  0.0
0.240548  -0.113218  0.0
0.25855  -0.117402  0.0
0.24692  -0.111238  0.0
0.229637  -0.107088  0.0
0.239089  -0.110572  0.0
0.503617  -0.134204  0.0
0.495926  -0.138182  0.0
0.513007  -0.13896  0.0
0.504187  -0.137126  0.0
0.487665  -0.142055  0.0
0.496599  -0.146765  0.0
0.477899  -0.145759  0.0
0.487464  -0.144879  0.0
0.522891  -0.143685  0.0
0.524092  -0.146594  0.0
0.51539  -0.147649  0.0
0.513695  -0.141869  0.0
0.505749  -0.145794  0.0
0.496306  -0.141069  0.0
0.505254  -0.142923  0.0
0.99521  -0.109166  0.0
0.990945  -0.101366  0.0
0.98279  -0.097211  0.0
0.97619  -0.092426  0.0
0.983507  -0.094143  0.0
0.99519  -0.090811  0.0
0.990897  -0.082932  0.0
0.967149  -0.087766  0.0
0.97528  -0.083136  0.0
0.958434  -0.083171  0.0
0.967007  -0.084683  0.0
0.982724  -0.084473  0.0
0.976165  -0.0893  0.0
0.99164  -0.088069  0.0
0.983466  -0.087554  0.0
0.995168  -0.072274  0.0
0.990864  -0.064324  0.0
0.949709  -0.078543  0.0
0.958468  -0.073894  0.0
0.940889  -0.073894  0.0
0.949678  -0.075446  0.0
0.967009  -0.0692  0.0
0.97518  -0.064527  0.0
0.958258  -0.064562  0.0
0.966871  -0.066089  0.0
0.932019  -0.069236  0.0
0.940759  -0.064568  0.0
0.923133  -0.064568  0.0
0.931971  -0.066125  0.0
0.949564  -0.066121  0.0
0.940847  -0.070789  0.0
0.958436  -0.070784  0.0
0.949604  -0.069232  0.0
0.98266  -0.065878  0.0
0.976062  -0.070745  0.0
0.991608  -0.069505  0.0
0.983404  -0.068984  0.0
0.96706  -0.075465  0.0
0.958406  -0.080087  0.0
0.975269  -0.080097  0.0
0.966968  -0.078561  0.0
0.996433  -0.07815  0.0
0.9916  -0.075068  0.0
0.99645  -0.084968  0.0
0.99088  -0.080232  0.0
0.982696  -0.078734  0.0
0.976082  -0.0739  0.0
0.983416  -0.075633  0.0
0.996466  -0.096627  0.0
0.991656  -0.09358  0.0
0.996472  -0.103381  0.0
0.990939  -0.098691  0.0
0.914231  -0.059889  0.0
0.92299  -0.055203  0.0
0.905314  -0.055201  0.0
0.914178  -0.056766  0.0
0.931768  -0.050507  0.0
0.940555  -0.045803  0.0
0.922863  -0.045803  0.0
0.93173  -0.047372  0.0
0.896386  -0.050505  0.0
0.905158  -0.045802  0.0
0.887449  -0.045799  0.0
0.89633  -0.04737  0.0
0.914033  -0.047371  0.0
0.90526  -0.052072  0.0
0.922946  -0.052073  0.0
0.914079  -0.050506  0.0
0.949346  -0.041094  0.0
0.958186  -0.036375  0.0
0.94048  -0.036374  0.0
0.94933  -0.03795  0.0
0.966813  -0.031617  0.0
0.975054  -0.026883  0.0
0.958019  -0.026914  0.0
0.966692  -0.028463  0.0
0.931578  -0.031649  0.0
0.940407  -0.02692  0.0
0.922672  -0.026919  0.0
0.931553  -0.028496  0.0
0.94926  -0.028493  0.0
0.940455  -0.033225  0.0
0.958163  -0.03322  0.0
0.949283  -0.031646  0.0
0.878504  -0.041086  0.0
0.887292  -0.03637  0.0
0.869554  -0.036367  0.0
0.878449  -0.037942  0.0
0.896099  -0.031647  0.0
0.904923  -0.026919  0.0
0.887168  -0.026917  0.0
0.896063  -0.028495  0.0
0.860601  -0.031641  0.0
0.86941  -0.026914  0.0
0.851647  -0.02691  0.0
0.860552  -0.028489  0.0
0.878309  -0.028493  0.0
0.869501  -0.033218  0.0
0.887247  -0.033221  0.0
0.878352  -0.031645  0.0
0.913812  -0.028496  0.0
0.904989  -0.033223  0.0
0.922727  -0.033225  0.0
0.913842  -0.031649  0.0
0.896182  -0.037945  0.0
0.887393  -0.042659  0.0
0.905111  -0.042662  0.0
0.896228  -0.041089  0.0
0.931633  -0.037947  0.0
0.922825  -0.042663  0.0
0.940525  -0.042663  0.0
0.931662  -0.041092  0.0
0.913949  -0.041091  0.0
0.922757  -0.036373  0.0
0.905026  -0.036372  0.0
0.91391  -0.037946  0.0
0.982541  -0.02239  0.0
0.975868  -0.017462  0.0
0.983277  -0.019232  0.0
0.995127  -0.015819  0.0
0.990793  -0.007728  0.0
0.966743  -0.012671  0.0
0.974997  -0.007925  0.0
0.957958  -0.007957  0.0
0.966619  -0.009508  0.0
0.982521  -0.0093  0.0
0.975863  -0.014249  0.0
0.991535  -0.012997  0.0
0.983263  -0.012461  0.0
0.995124  0.003156  0.0
0.990799  0.011247  0.0
0.949183  -0.00322  0.0
0.958078  0.001526  0.0
0.940334  0.001527  0.0
0.949188  -5.7e-05  0.0
0.966737  0.006306  0.0
0.975004  0.011053  0.0
0.957962  0.011022  0.0
0.966623  0.00947  0.0
0.931455  0.006273  0.0
0.940338  0.011017  0.0
0.922585  0.011016  0.0
0.93146  0.009436  0.0
0.949186  0.009439  0.0
0.940335  0.004691  0.0
0.958077  0.004695  0.0
0.949188  0.006277  0.0
0.982531  0.009678  0.0
0.975856  0.00473  0.0
0.991537  0.005981  0.0
0.983269  0.006519  0.0
0.96674  -7.8e-05  0.0
0.957957  -0.0048  0.0
0.975003  -0.004814  0.0
0.966623  -0.00324  0.0
0.996396  -0.002842  0.0
0.99152  0.000311  0.0
0.996408  -0.009822  0.0
0.990782  -0.004965  0.0
0.982515  -0.003425  0.0
0.975858  0.001515  0.0
0.983253  -0.000258  0.0
0.842695  -0.022175  0.0
0.85153  -0.017441  0.0
0.833748  -0.017437  0.0
0.842657  -0.019018  0.0
0.860382  -0.012702  0.0
0.869248  -0.007961  0.0
0.851462  -0.00796  0.0
0.860363  -0.009541  0.0
0.824807  -0.012697  0.0
0.833672  -0.007958  0.0
0.815875  -0.007955  0.0
0.824783  -0.009537  0.0
0.842576  -0.009539  0.0
0.833716  -0.014278  0.0
0.851502  -0.014281  0.0
0.842597  -0.0127  0.0
0.878127  -0.003217  0.0
0.887016  0.001527  0.0
0.869233  0.001527  0.0
0.878124  -5.4e-05  0.0
0.895913  0.006272  0.0
0.904816  0.011016  0.0
0.887041  0.011015  0.0
0.895923  0.009434  0.0
0.86035  0.006271  0.0
0.869262  0.011014  0.0
0.851479  0.011012  0.0
0.860363  0.009432  0.0
0.878145  0.009434  0.0
0.869238  0.00469  0.0
0.88702  0.00469  0.0
0.878134  0.006271  0.0
0.806955  -0.003214  0.0
0.815854  0.001526  0.0
0.798049  0.001525  0.0
0.806951  -5.4e-05  0.0
0.824766  0.006268  0.0
0.83369  0.01101  0.0
0.815896  0.011006  0.0
0.824783  0.009428  0.0
0.789159  0.006262  0.0
0.798095  0.011001  0.0
0.780288  0.010995  0.0
0.789179  0.00942  0.0
0.806984  0.009425  0.0
0.798056  0.004684  0.0
0.815861  0.004686  0.0
0.806966  0.006265  0.0
0.842575  0.009431  0.0
0.833659  0.004688  0.0
0.851451  0.004689  0.0
0.842561  0.006269  0.0
0.824753  -5.4e-05  0.0
0.815861  -0.004795  0.0
0.833659  -0.004797  0.0
0.824756  -0.003216  0.0
0.860339  -5.4e-05  0.0
0.851451  -0.004798  0.0
0.869238  -0.004799  0.0
0.860342  -0.003217  0.0
0.842552  -0.003216  0.0
0.851445  0.001527  0.0
0.833652  0.001526  0.0
0.842549  -5.4e-05  0.0
0.913696  0.009435  0.0
0.904798  0.004691  0.0
0.922572  0.004691  0.0
0.913688  0.006272  0.0
0.895905  -5.4e-05  0.0
0.88702  -0.004799  0.0
0.904798  -0.004799  0.0
0.895907  -0.003218  0.0
0.931451  -5.5e-05  0.0
0.922571  -0.0048  0.0
0.940329  -0.0048  0.0
0.931451  -0.003218  0.0
0.913684  -0.003218  0.0
0.922569  0.001527  0.0
0.904795  0.001527  0.0
0.913682  -5.4e-05  0.0
0.878145  -0.009542  0.0
0.869283  -0.014284  0.0
0.887059  -0.014285  0.0
0.878162  -0.012704  0.0
0.860435  -0.019022  0.0
0.851603  -0.023755  0.0
0.869371  -0.023759  0.0
0.860469  -0.022179  0.0
0.895976  -0.019026  0.0
0.887135  -0.023761  0.0
0.904895  -0.023763  0.0
0.896001  -0.022184  0.0
0.878237  -0.022182  0.0
0.88708  -0.017445  0.0
0.869307  -0.017443  0.0
0.878207  -0.019024  0.0
0.949188  -0.00954  0.0
0.940356  -0.014286  0.0
0.958095  -0.014281  0.0
0.9492  -0.012702  0.0
0.931499  -0.019027  0.0
0.922649  -0.023764  0.0
0.940392  -0.023764  0.0
0.931514  -0.022186  0.0
0.96675  -0.019051  0.0
0.957998  -0.023764  0.0
0.975027  -0.023778  0.0
0.966644  -0.022209  0.0
0.949223  -0.022188  0.0
0.958096  -0.017448  0.0
0.940369  -0.017447  0.0
0.949215  -0.019029  0.0
0.913761  -0.022185  0.0
0.922613  -0.017447  0.0
0.904849  -0.017446  0.0
0.91374  -0.019027  0.0
0.931471  -0.012706  0.0
0.940333  -0.007962  0.0
0.922577  -0.007963  0.0
0.931461  -0.009544  0.0
0.895937  -0.012705  0.0
0.904806  -0.007962  0.0
0.887029  -0.007962  0.0
0.895923  -0.009543  0.0
0.913696  -0.009544  0.0
0.904831  -0.014286  0.0
0.922598  -0.014287  0.0
0.913708  -0.012706  0.0
0.996416  -0.021804  0.0
0.991544  -0.018661  0.0
0.99641  -0.028767  0.0
0.990808  -0.023924  0.0
0.982562  -0.028252  0.0
0.975919  -0.033185  0.0
0.991546  -0.031931  0.0
0.983306  -0.0314  0.0
0.96684  -0.03797  0.0
0.958107  -0.042664  0.0
0.975099  -0.042677  0.0
0.966745  -0.041115  0.0
0.996408  -0.040707  0.0
0.991544  -0.037576  0.0
0.996423  -0.047636  0.0
0.990814  -0.042819  0.0
0.982578  -0.041293  0.0
0.975923  -0.036383  0.0
0.983308  -0.038145  0.0
0.949393  -0.047369  0.0
0.940625  -0.052073  0.0
0.958285  -0.052069  0.0
0.949425  -0.050504  0.0
0.931845  -0.056767  0.0
0.923083  -0.06145  0.0
0.940723  -0.061451  0.0
0.931885  -0.05989  0.0
0.966935  -0.056787  0.0
0.958233  -0.06145  0.0
0.975172  -0.061461  0.0
0.966838  -0.05991  0.0
0.949503  -0.059892  0.0
0.958306  -0.055203  0.0
0.940658  -0.055203  0.0
0.949479  -0.056768  0.0
0.996425  -0.059501  0.0
0.991576  -0.056396  0.0
0.99644  -0.06638  0.0
0.990849  -0.0616  0.0
0.982637  -0.060087  0.0
0.975996  -0.055214  0.0
0.983364  -0.056963  0.0
0.995151  -0.053579  0.0
0.990829  -0.045562  0.0
0.966881  -0.050472  0.0
0.975089  -0.045765  0.0
0.958124  -0.0458  0.0
0.966752  -0.047338  0.0
0.982583  -0.047125  0.0
0.975963  -0.052033  0.0
0.991573  -0.050787  0.0
0.983328  -0.050259  0.0
0.995136  -0.034743  0.0
0.990802  -0.026681  0.0
0.771439  0.015723  0.0
0.780415  0.020459  0.0
0.762612  0.020445  0.0
0.771487  0.018877  0.0
0.789401  0.025194  0.0
0.798394  0.029927  0.0
0.780615  0.029911  0.0
0.789468  0.028345  0.0
0.753811  0.025159  0.0