# vtk DataFile Version 3.1
for FEM Programme output
ASCII
DATASET UNSTRUCTURED_GRID
POINTS 2 double
 0.0 0.0 0.0
 2000.0 1500.0 0.0
CELLS 1 3
2 0 1
CELL_TYPES 1
3
POINT_DATA 2
VECTORS displacement double
0.0  0.0  0.0
0.0  0.0  0.0
FIELD FieldData 3
AppliedForcesMoments 3 2 double
-32.0 -624.0 -266666.666667 
32.0 -1376.0 400000.0 
ReactionForcesMoments 3 2 double
0.0 0.0 0.0 
0.0 0.0 0.0 
AdditionalDoFs 1 2 double
0.0 
0.0 
