# vtk DataFile Version 3.1
for FEM Programme output
ASCII
DATASET UNSTRUCTURED_GRID
POINTS 42 double
 350.0 50.0 0.0
 300.0 50.0 0.0
 250.0 50.0 0.0
 200.0 50.0 0.0
 150.0 50.0 0.0
 100.0 50.0 0.0
 50.0 50.0 0.0
 0.0 50.0 0.0
 -50.0 50.0 0.0
 -100.0 50.0 0.0
 -150.0 50.0 0.0
 -200.0 50.0 0.0
 -250.0 50.0 0.0
 -300.0 50.0 0.0
 -350.0 50.0 0.0
 -400.0 50.0 0.0
 -450.0 50.0 0.0
 -500.0 50.0 0.0
 -550.0 50.0 0.0
 -600.0 50.0 0.0
 -650.0 50.0 0.0
 350.0 0.0 0.0
 300.0 0.0 0.0
 250.0 0.0 0.0
 200.0 0.0 0.0
 150.0 0.0 0.0
 100.0 0.0 0.0
 50.0 0.0 0.0
 0.0 0.0 0.0
 -50.0 0.0 0.0
 -100.0 0.0 0.0
 -150.0 0.0 0.0
 -200.0 0.0 0.0
 -250.0 0.0 0.0
 -300.0 0.0 0.0
 -350.0 0.0 0.0
 -400.0 0.0 0.0
 -450.0 0.0 0.0
 -500.0 0.0 0.0
 -550.0 0.0 0.0
 -600.0 0.0 0.0
 -650.0 0.0 0.0
CELLS 40 160
3 0 1 22
3 22 21 0
3 1 2 23
3 23 22 1
3 2 3 24
3 24 23 2
3 3 4 25
3 25 24 3
3 4 5 26
3 26 25 4
3 5 6 27
3 27 26 5
3 6 7 28
3 28 27 6
3 7 8 29
3 29 28 7
3 8 9 30
3 30 29 8
3 9 10 31
3 31 30 9
3 10 11 32
3 32 31 10
3 11 12 33
3 33 32 11
3 12 13 34
3 34 33 12
3 13 14 35
3 35 34 13
3 14 15 36
3 36 35 14
3 15 16 37
3 37 36 15
3 16 17 38
3 38 37 16
3 17 18 39
3 39 38 17
3 18 19 40
3 40 39 18
3 19 20 41
3 41 40 19
CELL_TYPES 40
5
5
5
5
5
5
5
5
5
5
5
5
5
5
5
5
5
5
5
5
5
5
5
5
5
5
5
5
5
5
5
5
5
5
5
5
5
5
5
5
POINT_DATA 42
VECTORS displacement double
0.110757  -3.645137  0.0
0.110755  -3.419881  0.0
0.110743  -3.194605  0.0
0.110697  -2.969319  0.0
0.110578  -2.744104  0.0
0.110328  -2.519141  0.0
0.109873  -2.294745  0.0
0.109123  -2.0714  0.0
0.107969  -1.849794  0.0
0.106287  -1.630847  0.0
0.103935  -1.415753  0.0
0.100756  -1.206007  0.0
0.096573  -1.00344  0.0
0.091196  -0.810257  0.0
0.084415  -0.629064  0.0
0.076005  -0.462907  0.0
0.065723  -0.315304  0.0
0.053309  -0.190278  0.0
0.038487  -0.092392  0.0
0.020952  -0.026805  0.0
0.0  0.0  0.0
-0.114496  -3.645136  0.0
-0.114495  -3.419879  0.0
-0.114483  -3.194605  0.0
-0.114434  -2.969328  0.0
-0.114305  -2.744128  0.0
-0.114034  -2.519186  0.0
-0.113544  -2.294817  0.0
-0.11274  -2.071505  0.0
-0.111512  -1.849938  0.0
-0.10973  -1.631036  0.0
-0.10725  -1.415993  0.0
-0.10391  -1.206304  0.0
-0.099531  -1.0038  0.0
-0.093917  -0.810685  0.0
-0.086857  -0.629567  0.0
-0.07812  -0.463492  0.0
-0.067461  -0.315976  0.0
-0.054616  -0.191043  0.0
-0.039306  -0.093254  0.0
-0.021232  -0.027739  0.0
0.0  0.0  0.0
FIELD FieldData 2
AppliedForcesMoments 2 42 double
0.0 -20.833333 
0.0 -125.0 
0.0 -250.0 
0.0 -375.0 
0.0 -500.0 
0.0 -625.0 
0.0 -750.0 
0.0 -875.0 
0.0 -1000.0 
0.0 -1125.0 
0.0 -1250.0 
0.0 -1375.0 
0.0 -1500.0 
0.0 -1625.0 
0.0 -1750.0 
0.0 -1875.0 
0.0 -2000.0 
0.0 -2125.0 
0.0 -2250.0 
0.0 -2375.0 
0.0 -1229.166667 
0.0 0.0 
0.0 0.0 
0.0 0.0 
0.0 0.0 
0.0 0.0 
0.0 0.0 
0.0 0.0 
0.0 0.0 
0.0 0.0 
0.0 0.0 
0.0 0.0 
0.0 0.0 
0.0 0.0 
0.0 0.0 
0.0 0.0 
0.0 0.0 
0.0 0.0 
0.0 0.0 
0.0 0.0 
0.0 0.0 
0.0 0.0 
ReactionForcesMoments 2 42 double
0.0 0.0 
0.0 0.0 
0.0 0.0 
0.0 0.0 
0.0 0.0 
0.0 0.0 
0.0 0.0 
0.0 0.0 
0.0 0.0 
0.0 0.0 
0.0 0.0 
0.0 0.0 
0.0 0.0 
0.0 0.0 
0.0 0.0 
0.0 0.0 
0.0 0.0 
0.0 0.0 
0.0 0.0 
0.0 0.0 
-166666.666666 86083.914855 
0.0 0.0 
0.0 0.0 
0.0 0.0 
0.0 0.0 
0.0 0.0 
0.0 0.0 
0.0 0.0 
0.0 0.0 
0.0 0.0 
0.0 0.0 
0.0 0.0 
0.0 0.0 
0.0 0.0 
0.0 0.0 
0.0 0.0 
0.0 0.0 
0.0 0.0 
0.0 0.0 
0.0 0.0 
0.0 0.0 
166666.666666 -62313.081522 
