# vtk DataFile Version 3.1
for Linear FEM Programme output
ASCII
DATASET UNSTRUCTURED_GRID
POINTS 42 double
 350.0 50.0 0.0
 300.0 50.0 0.0
 250.0 50.0 0.0
 200.0 50.0 0.0
 150.0 50.0 0.0
 100.0 50.0 0.0
 50.0 50.0 0.0
 0.0 50.0 0.0
 -50.0 50.0 0.0
 -100.0 50.0 0.0
 -150.0 50.0 0.0
 -200.0 50.0 0.0
 -250.0 50.0 0.0
 -300.0 50.0 0.0
 -350.0 50.0 0.0
 -400.0 50.0 0.0
 -450.0 50.0 0.0
 -500.0 50.0 0.0
 -550.0 50.0 0.0
 -600.0 50.0 0.0
 -650.0 50.0 0.0
 350.0 0.0 0.0
 300.0 0.0 0.0
 250.0 0.0 0.0
 200.0 0.0 0.0
 150.0 0.0 0.0
 100.0 0.0 0.0
 50.0 0.0 0.0
 0.0 0.0 0.0
 -50.0 0.0 0.0
 -100.0 0.0 0.0
 -150.0 0.0 0.0
 -200.0 0.0 0.0
 -250.0 0.0 0.0
 -300.0 0.0 0.0
 -350.0 0.0 0.0
 -400.0 0.0 0.0
 -450.0 0.0 0.0
 -500.0 0.0 0.0
 -550.0 0.0 0.0
 -600.0 0.0 0.0
 -650.0 0.0 0.0
CELLS 40 160
3 0 1 22
3 22 21 0
3 1 2 23
3 23 22 1
3 2 3 24
3 24 23 2
3 3 4 25
3 25 24 3
3 4 5 26
3 26 25 4
3 5 6 27
3 27 26 5
3 6 7 28
3 28 27 6
3 7 8 29
3 29 28 7
3 8 9 30
3 30 29 8
3 9 10 31
3 31 30 9
3 10 11 32
3 32 31 10
3 11 12 33
3 33 32 11
3 12 13 34
3 34 33 12
3 13 14 35
3 35 34 13
3 14 15 36
3 36 35 14
3 15 16 37
3 37 36 15
3 16 17 38
3 38 37 16
3 17 18 39
3 39 38 17
3 18 19 40
3 40 39 18
3 19 20 41
3 41 40 19
CELL_TYPES 40
5
5
5
5
5
5
5
5
5
5
5
5
5
5
5
5
5
5
5
5
5
5
5
5
5
5
5
5
5
5
5
5
5
5
5
5
5
5
5
5
POINT_DATA 42
VECTORS displacement double
0.027  -0.724  0.0
0.027  -0.67  0.0
0.026  -0.616  0.0
0.026  -0.563  0.0
0.026  -0.51  0.0
0.025  -0.459  0.0
0.024  -0.409  0.0
0.023  -0.36  0.0
0.022  -0.314  0.0
0.021  -0.269  0.0
0.02  -0.227  0.0
0.019  -0.188  0.0
0.017  -0.152  0.0
0.015  -0.118  0.0
0.014  -0.089  0.0
0.012  -0.063  0.0
0.01  -0.041  0.0
0.007  -0.024  0.0
0.005  -0.011  0.0
0.003  -0.003  0.0
0.0  0.0  0.0
-0.027  -0.724  0.0
-0.027  -0.67  0.0
-0.027  -0.616  0.0
-0.027  -0.563  0.0
-0.026  -0.51  0.0
-0.025  -0.459  0.0
-0.025  -0.409  0.0
-0.024  -0.36  0.0
-0.023  -0.314  0.0
-0.022  -0.269  0.0
-0.02  -0.227  0.0
-0.019  -0.188  0.0
-0.017  -0.152  0.0
-0.016  -0.119  0.0
-0.014  -0.089  0.0
-0.012  -0.063  0.0
-0.01  -0.041  0.0
-0.008  -0.024  0.0
-0.005  -0.011  0.0
-0.003  -0.003  0.0
0.0  0.0  0.0
