# vtk DataFile Version 3.1
for FEM Programme igpoints output
ASCII
DATASET POLYDATA
POINTS 640 double
 341.666667 45.833333 0.0
 345.833333 41.666667 0.0
 329.166667 45.833333 0.0
 333.333333 41.666667 0.0
 316.666667 45.833333 0.0
 320.833333 41.666667 0.0
 304.166667 45.833333 0.0
 308.333333 41.666667 0.0
 291.666667 45.833333 0.0
 295.833333 41.666667 0.0
 279.166667 45.833333 0.0
 283.333333 41.666667 0.0
 266.666667 45.833333 0.0
 270.833333 41.666667 0.0
 254.166667 45.833333 0.0
 258.333333 41.666667 0.0
 241.666667 45.833333 0.0
 245.833333 41.666667 0.0
 229.166667 45.833333 0.0
 233.333333 41.666667 0.0
 216.666667 45.833333 0.0
 220.833333 41.666667 0.0
 204.166667 45.833333 0.0
 208.333333 41.666667 0.0
 191.666667 45.833333 0.0
 195.833333 41.666667 0.0
 179.166667 45.833333 0.0
 183.333333 41.666667 0.0
 166.666667 45.833333 0.0
 170.833333 41.666667 0.0
 154.166667 45.833333 0.0
 158.333333 41.666667 0.0
 141.666667 45.833333 0.0
 145.833333 41.666667 0.0
 129.166667 45.833333 0.0
 133.333333 41.666667 0.0
 116.666667 45.833333 0.0
 120.833333 41.666667 0.0
 104.166667 45.833333 0.0
 108.333333 41.666667 0.0
 91.666667 45.833333 0.0
 95.833333 41.666667 0.0
 79.166667 45.833333 0.0
 83.333333 41.666667 0.0
 66.666667 45.833333 0.0
 70.833333 41.666667 0.0
 54.166667 45.833333 0.0
 58.333333 41.666667 0.0
 41.666667 45.833333 0.0
 45.833333 41.666667 0.0
 29.166667 45.833333 0.0
 33.333333 41.666667 0.0
 16.666667 45.833333 0.0
 20.833333 41.666667 0.0
 4.166667 45.833333 0.0
 8.333333 41.666667 0.0
 -8.333333 45.833333 0.0
 -4.166667 41.666667 0.0
 -20.833333 45.833333 0.0
 -16.666667 41.666667 0.0
 -33.333333 45.833333 0.0
 -29.166667 41.666667 0.0
 -45.833333 45.833333 0.0
 -41.666667 41.666667 0.0
 -58.333333 45.833333 0.0
 -54.166667 41.666667 0.0
 -70.833333 45.833333 0.0
 -66.666667 41.666667 0.0
 -83.333333 45.833333 0.0
 -79.166667 41.666667 0.0
 -95.833333 45.833333 0.0
 -91.666667 41.666667 0.0
 -108.333333 45.833333 0.0
 -104.166667 41.666667 0.0
 -120.833333 45.833333 0.0
 -116.666667 41.666667 0.0
 -133.333333 45.833333 0.0
 -129.166667 41.666667 0.0
 -145.833333 45.833333 0.0
 -141.666667 41.666667 0.0
 -158.333333 45.833333 0.0
 -154.166667 41.666667 0.0
 -170.833333 45.833333 0.0
 -166.666667 41.666667 0.0
 -183.333333 45.833333 0.0
 -179.166667 41.666667 0.0
 -195.833333 45.833333 0.0
 -191.666667 41.666667 0.0
 -208.333333 45.833333 0.0
 -204.166667 41.666667 0.0
 -220.833333 45.833333 0.0
 -216.666667 41.666667 0.0
 -233.333333 45.833333 0.0
 -229.166667 41.666667 0.0
 -245.833333 45.833333 0.0
 -241.666667 41.666667 0.0
 -258.333333 45.833333 0.0
 -254.166667 41.666667 0.0
 -270.833333 45.833333 0.0
 -266.666667 41.666667 0.0
 -283.333333 45.833333 0.0
 -279.166667 41.666667 0.0
 -295.833333 45.833333 0.0
 -291.666667 41.666667 0.0
 -308.333333 45.833333 0.0
 -304.166667 41.666667 0.0
 -320.833333 45.833333 0.0
 -316.666667 41.666667 0.0
 -333.333333 45.833333 0.0
 -329.166667 41.666667 0.0
 -345.833333 45.833333 0.0
 -341.666667 41.666667 0.0
 -358.333333 45.833333 0.0
 -354.166667 41.666667 0.0
 -370.833333 45.833333 0.0
 -366.666667 41.666667 0.0
 -383.333333 45.833333 0.0
 -379.166667 41.666667 0.0
 -395.833333 45.833333 0.0
 -391.666667 41.666667 0.0
 -408.333333 45.833333 0.0
 -404.166667 41.666667 0.0
 -420.833333 45.833333 0.0
 -416.666667 41.666667 0.0
 -433.333333 45.833333 0.0
 -429.166667 41.666667 0.0
 -445.833333 45.833333 0.0
 -441.666667 41.666667 0.0
 -458.333333 45.833333 0.0
 -454.166667 41.666667 0.0
 -470.833333 45.833333 0.0
 -466.666667 41.666667 0.0
 -483.333333 45.833333 0.0
 -479.166667 41.666667 0.0
 -495.833333 45.833333 0.0
 -491.666667 41.666667 0.0
 -508.333333 45.833333 0.0
 -504.166667 41.666667 0.0
 -520.833333 45.833333 0.0
 -516.666667 41.666667 0.0
 -533.333333 45.833333 0.0
 -529.166667 41.666667 0.0
 -545.833333 45.833333 0.0
 -541.666667 41.666667 0.0
 -558.333333 45.833333 0.0
 -554.166667 41.666667 0.0
 -570.833333 45.833333 0.0
 -566.666667 41.666667 0.0
 -583.333333 45.833333 0.0
 -579.166667 41.666667 0.0
 -595.833333 45.833333 0.0
 -591.666667 41.666667 0.0
 -608.333333 45.833333 0.0
 -604.166667 41.666667 0.0
 -620.833333 45.833333 0.0
 -616.666667 41.666667 0.0
 -633.333333 45.833333 0.0
 -629.166667 41.666667 0.0
 -645.833333 45.833333 0.0
 -641.666667 41.666667 0.0
 341.666667 33.333333 0.0
 345.833333 29.166667 0.0
 329.166667 33.333333 0.0
 333.333333 29.166667 0.0
 316.666667 33.333333 0.0
 320.833333 29.166667 0.0
 304.166667 33.333333 0.0
 308.333333 29.166667 0.0
 291.666667 33.333333 0.0
 295.833333 29.166667 0.0
 279.166667 33.333333 0.0
 283.333333 29.166667 0.0
 266.666667 33.333333 0.0
 270.833333 29.166667 0.0
 254.166667 33.333333 0.0
 258.333333 29.166667 0.0
 241.666667 33.333333 0.0
 245.833333 29.166667 0.0
 229.166667 33.333333 0.0
 233.333333 29.166667 0.0
 216.666667 33.333333 0.0
 220.833333 29.166667 0.0
 204.166667 33.333333 0.0
 208.333333 29.166667 0.0
 191.666667 33.333333 0.0
 195.833333 29.166667 0.0
 179.166667 33.333333 0.0
 183.333333 29.166667 0.0
 166.666667 33.333333 0.0
 170.833333 29.166667 0.0
 154.166667 33.333333 0.0
 158.333333 29.166667 0.0
 141.666667 33.333333 0.0
 145.833333 29.166667 0.0
 129.166667 33.333333 0.0
 133.333333 29.166667 0.0
 116.666667 33.333333 0.0
 120.833333 29.166667 0.0
 104.166667 33.333333 0.0
 108.333333 29.166667 0.0
 91.666667 33.333333 0.0
 95.833333 29.166667 0.0
 79.166667 33.333333 0.0
 83.333333 29.166667 0.0
 66.666667 33.333333 0.0
 70.833333 29.166667 0.0
 54.166667 33.333333 0.0
 58.333333 29.166667 0.0
 41.666667 33.333333 0.0
 45.833333 29.166667 0.0
 29.166667 33.333333 0.0
 33.333333 29.166667 0.0
 16.666667 33.333333 0.0
 20.833333 29.166667 0.0
 4.166667 33.333333 0.0
 8.333333 29.166667 0.0
 -8.333333 33.333333 0.0
 -4.166667 29.166667 0.0
 -20.833333 33.333333 0.0
 -16.666667 29.166667 0.0
 -33.333333 33.333333 0.0
 -29.166667 29.166667 0.0
 -45.833333 33.333333 0.0
 -41.666667 29.166667 0.0
 -58.333333 33.333333 0.0
 -54.166667 29.166667 0.0
 -70.833333 33.333333 0.0
 -66.666667 29.166667 0.0
 -83.333333 33.333333 0.0
 -79.166667 29.166667 0.0
 -95.833333 33.333333 0.0
 -91.666667 29.166667 0.0
 -108.333333 33.333333 0.0
 -104.166667 29.166667 0.0
 -120.833333 33.333333 0.0
 -116.666667 29.166667 0.0
 -133.333333 33.333333 0.0
 -129.166667 29.166667 0.0
 -145.833333 33.333333 0.0
 -141.666667 29.166667 0.0
 -158.333333 33.333333 0.0
 -154.166667 29.166667 0.0
 -170.833333 33.333333 0.0
 -166.666667 29.166667 0.0
 -183.333333 33.333333 0.0
 -179.166667 29.166667 0.0
 -195.833333 33.333333 0.0
 -191.666667 29.166667 0.0
 -208.333333 33.333333 0.0
 -204.166667 29.166667 0.0
 -220.833333 33.333333 0.0
 -216.666667 29.166667 0.0
 -233.333333 33.333333 0.0
 -229.166667 29.166667 0.0
 -245.833333 33.333333 0.0
 -241.666667 29.166667 0.0
 -258.333333 33.333333 0.0
 -254.166667 29.166667 0.0
 -270.833333 33.333333 0.0
 -266.666667 29.166667 0.0
 -283.333333 33.333333 0.0
 -279.166667 29.166667 0.0
 -295.833333 33.333333 0.0
 -291.666667 29.166667 0.0
 -308.333333 33.333333 0.0
 -304.166667 29.166667 0.0
 -320.833333 33.333333 0.0
 -316.666667 29.166667 0.0
 -333.333333 33.333333 0.0
 -329.166667 29.166667 0.0
 -345.833333 33.333333 0.0
 -341.666667 29.166667 0.0
 -358.333333 33.333333 0.0
 -354.166667 29.166667 0.0
 -370.833333 33.333333 0.0
 -366.666667 29.166667 0.0
 -383.333333 33.333333 0.0
 -379.166667 29.166667 0.0
 -395.833333 33.333333 0.0
 -391.666667 29.166667 0.0
 -408.333333 33.333333 0.0
 -404.166667 29.166667 0.0
 -420.833333 33.333333 0.0
 -416.666667 29.166667 0.0
 -433.333333 33.333333 0.0
 -429.166667 29.166667 0.0
 -445.833333 33.333333 0.0
 -441.666667 29.166667 0.0
 -458.333333 33.333333 0.0
 -454.166667 29.166667 0.0
 -470.833333 33.333333 0.0
 -466.666667 29.166667 0.0
 -483.333333 33.333333 0.0
 -479.166667 29.166667 0.0
 -495.833333 33.333333 0.0
 -491.666667 29.166667 0.0
 -508.333333 33.333333 0.0
 -504.166667 29.166667 0.0
 -520.833333 33.333333 0.0
 -516.666667 29.166667 0.0
 -533.333333 33.333333 0.0
 -529.166667 29.166667 0.0
 -545.833333 33.333333 0.0
 -541.666667 29.166667 0.0
 -558.333333 33.333333 0.0
 -554.166667 29.166667 0.0
 -570.833333 33.333333 0.0
 -566.666667 29.166667 0.0
 -583.333333 33.333333 0.0
 -579.166667 29.166667 0.0
 -595.833333 33.333333 0.0
 -591.666667 29.166667 0.0
 -608.333333 33.333333 0.0
 -604.166667 29.166667 0.0
 -620.833333 33.333333 0.0
 -616.666667 29.166667 0.0
 -633.333333 33.333333 0.0
 -629.166667 29.166667 0.0
 -645.833333 33.333333 0.0
 -641.666667 29.166667 0.0
 341.666667 20.833333 0.0
 345.833333 16.666667 0.0
 329.166667 20.833333 0.0
 333.333333 16.666667 0.0
 316.666667 20.833333 0.0
 320.833333 16.666667 0.0
 304.166667 20.833333 0.0
 308.333333 16.666667 0.0
 291.666667 20.833333 0.0
 295.833333 16.666667 0.0
 279.166667 20.833333 0.0
 283.333333 16.666667 0.0
 266.666667 20.833333 0.0
 270.833333 16.666667 0.0
 254.166667 20.833333 0.0
 258.333333 16.666667 0.0
 241.666667 20.833333 0.0
 245.833333 16.666667 0.0
 229.166667 20.833333 0.0
 233.333333 16.666667 0.0
 216.666667 20.833333 0.0
 220.833333 16.666667 0.0
 204.166667 20.833333 0.0
 208.333333 16.666667 0.0
 191.666667 20.833333 0.0
 195.833333 16.666667 0.0
 179.166667 20.833333 0.0
 183.333333 16.666667 0.0
 166.666667 20.833333 0.0
 170.833333 16.666667 0.0
 154.166667 20.833333 0.0
 158.333333 16.666667 0.0
 141.666667 20.833333 0.0
 145.833333 16.666667 0.0
 129.166667 20.833333 0.0
 133.333333 16.666667 0.0
 116.666667 20.833333 0.0
 120.833333 16.666667 0.0
 104.166667 20.833333 0.0
 108.333333 16.666667 0.0
 91.666667 20.833333 0.0
 95.833333 16.666667 0.0
 79.166667 20.833333 0.0
 83.333333 16.666667 0.0
 66.666667 20.833333 0.0
 70.833333 16.666667 0.0
 54.166667 20.833333 0.0
 58.333333 16.666667 0.0
 41.666667 20.833333 0.0
 45.833333 16.666667 0.0
 29.166667 20.833333 0.0
 33.333333 16.666667 0.0
 16.666667 20.833333 0.0
 20.833333 16.666667 0.0
 4.166667 20.833333 0.0
 8.333333 16.666667 0.0
 -8.333333 20.833333 0.0
 -4.166667 16.666667 0.0
 -20.833333 20.833333 0.0
 -16.666667 16.666667 0.0
 -33.333333 20.833333 0.0
 -29.166667 16.666667 0.0
 -45.833333 20.833333 0.0
 -41.666667 16.666667 0.0
 -58.333333 20.833333 0.0
 -54.166667 16.666667 0.0
 -70.833333 20.833333 0.0
 -66.666667 16.666667 0.0
 -83.333333 20.833333 0.0
 -79.166667 16.666667 0.0
 -95.833333 20.833333 0.0
 -91.666667 16.666667 0.0
 -108.333333 20.833333 0.0
 -104.166667 16.666667 0.0
 -120.833333 20.833333 0.0
 -116.666667 16.666667 0.0
 -133.333333 20.833333 0.0
 -129.166667 16.666667 0.0
 -145.833333 20.833333 0.0
 -141.666667 16.666667 0.0
 -158.333333 20.833333 0.0
 -154.166667 16.666667 0.0
 -170.833333 20.833333 0.0
 -166.666667 16.666667 0.0
 -183.333333 20.833333 0.0
 -179.166667 16.666667 0.0
 -195.833333 20.833333 0.0
 -191.666667 16.666667 0.0
 -208.333333 20.833333 0.0
 -204.166667 16.666667 0.0
 -220.833333 20.833333 0.0
 -216.666667 16.666667 0.0
 -233.333333 20.833333 0.0
 -229.166667 16.666667 0.0
 -245.833333 20.833333 0.0
 -241.666667 16.666667 0.0
 -258.333333 20.833333 0.0
 -254.166667 16.666667 0.0
 -270.833333 20.833333 0.0
 -266.666667 16.666667 0.0
 -283.333333 20.833333 0.0
 -279.166667 16.666667 0.0
 -295.833333 20.833333 0.0
 -291.666667 16.666667 0.0
 -308.333333 20.833333 0.0
 -304.166667 16.666667 0.0
 -320.833333 20.833333 0.0
 -316.666667 16.666667 0.0
 -333.333333 20.833333 0.0
 -329.166667 16.666667 0.0
 -345.833333 20.833333 0.0
 -341.666667 16.666667 0.0
 -358.333333 20.833333 0.0
 -354.166667 16.666667 0.0
 -370.833333 20.833333 0.0
 -366.666667 16.666667 0.0
 -383.333333 20.833333 0.0
 -379.166667 16.666667 0.0
 -395.833333 20.833333 0.0
 -391.666667 16.666667 0.0
 -408.333333 20.833333 0.0
 -404.166667 16.666667 0.0
 -420.833333 20.833333 0.0
 -416.666667 16.666667 0.0
 -433.333333 20.833333 0.0
 -429.166667 16.666667 0.0
 -445.833333 20.833333 0.0
 -441.666667 16.666667 0.0
 -458.333333 20.833333 0.0
 -454.166667 16.666667 0.0
 -470.833333 20.833333 0.0
 -466.666667 16.666667 0.0
 -483.333333 20.833333 0.0
 -479.166667 16.666667 0.0
 -495.833333 20.833333 0.0
 -491.666667 16.666667 0.0
 -508.333333 20.833333 0.0
 -504.166667 16.666667 0.0
 -520.833333 20.833333 0.0
 -516.666667 16.666667 0.0
 -533.333333 20.833333 0.0
 -529.166667 16.666667 0.0
 -545.833333 20.833333 0.0
 -541.666667 16.666667 0.0
 -558.333333 20.833333 0.0
 -554.166667 16.666667 0.0
 -570.833333 20.833333 0.0
 -566.666667 16.666667 0.0
 -583.333333 20.833333 0.0
 -579.166667 16.666667 0.0
 -595.833333 20.833333 0.0
 -591.666667 16.666667 0.0
 -608.333333 20.833333 0.0
 -604.166667 16.666667 0.0
 -620.833333 20.833333 0.0
 -616.666667 16.666667 0.0
 -633.333333 20.833333 0.0
 -629.166667 16.666667 0.0
 -645.833333 20.833333 0.0
 -641.666667 16.666667 0.0
 341.666667 8.333333 0.0
 345.833333 4.166667 0.0
 329.166667 8.333333 0.0
 333.333333 4.166667 0.0
 316.666667 8.333333 0.0
 320.833333 4.166667 0.0
 304.166667 8.333333 0.0
 308.333333 4.166667 0.0
 291.666667 8.333333 0.0
 295.833333 4.166667 0.0
 279.166667 8.333333 0.0
 283.333333 4.166667 0.0
 266.666667 8.333333 0.0
 270.833333 4.166667 0.0
 254.166667 8.333333 0.0
 258.333333 4.166667 0.0
 241.666667 8.333333 0.0
 245.833333 4.166667 0.0
 229.166667 8.333333 0.0
 233.333333 4.166667 0.0
 216.666667 8.333333 0.0
 220.833333 4.166667 0.0
 204.166667 8.333333 0.0
 208.333333 4.166667 0.0
 191.666667 8.333333 0.0
 195.833333 4.166667 0.0
 179.166667 8.333333 0.0
 183.333333 4.166667 0.0
 166.666667 8.333333 0.0
 170.833333 4.166667 0.0
 154.166667 8.333333 0.0
 158.333333 4.166667 0.0
 141.666667 8.333333 0.0
 145.833333 4.166667 0.0
 129.166667 8.333333 0.0
 133.333333 4.166667 0.0
 116.666667 8.333333 0.0
 120.833333 4.166667 0.0
 104.166667 8.333333 0.0
 108.333333 4.166667 0.0
 91.666667 8.333333 0.0
 95.833333 4.166667 0.0
 79.166667 8.333333 0.0
 83.333333 4.166667 0.0
 66.666667 8.333333 0.0
 70.833333 4.166667 0.0
 54.166667 8.333333 0.0
 58.333333 4.166667 0.0
 41.666667 8.333333 0.0
 45.833333 4.166667 0.0
 29.166667 8.333333 0.0
 33.333333 4.166667 0.0
 16.666667 8.333333 0.0
 20.833333 4.166667 0.0
 4.166667 8.333333 0.0
 8.333333 4.166667 0.0
 -8.333333 8.333333 0.0
 -4.166667 4.166667 0.0
 -20.833333 8.333333 0.0
 -16.666667 4.166667 0.0
 -33.333333 8.333333 0.0
 -29.166667 4.166667 0.0
 -45.833333 8.333333 0.0
 -41.666667 4.166667 0.0
 -58.333333 8.333333 0.0
 -54.166667 4.166667 0.0
 -70.833333 8.333333 0.0
 -66.666667 4.166667 0.0
 -83.333333 8.333333 0.0
 -79.166667 4.166667 0.0
 -95.833333 8.333333 0.0
 -91.666667 4.166667 0.0
 -108.333333 8.333333 0.0
 -104.166667 4.166667 0.0
 -120.833333 8.333333 0.0
 -116.666667 4.166667 0.0
 -133.333333 8.333333 0.0
 -129.166667 4.166667 0.0
 -145.833333 8.333333 0.0
 -141.666667 4.166667 0.0
 -158.333333 8.333333 0.0
 -154.166667 4.166667 0.0
 -170.833333 8.333333 0.0
 -166.666667 4.166667 0.0
 -183.333333 8.333333 0.0
 -179.166667 4.166667 0.0
 -195.833333 8.333333 0.0
 -191.666667 4.166667 0.0
 -208.333333 8.333333 0.0
 -204.166667 4.166667 0.0
 -220.833333 8.333333 0.0
 -216.666667 4.166667 0.0
 -233.333333 8.333333 0.0
 -229.166667 4.166667 0.0
 -245.833333 8.333333 0.0
 -241.666667 4.166667 0.0
 -258.333333 8.333333 0.0
 -254.166667 4.166667 0.0
 -270.833333 8.333333 0.0
 -266.666667 4.166667 0.0
 -283.333333 8.333333 0.0
 -279.166667 4.166667 0.0
 -295.833333 8.333333 0.0
 -291.666667 4.166667 0.0
 -308.333333 8.333333 0.0
 -304.166667 4.166667 0.0
 -320.833333 8.333333 0.0
 -316.666667 4.166667 0.0
 -333.333333 8.333333 0.0
 -329.166667 4.166667 0.0
 -345.833333 8.333333 0.0
 -341.666667 4.166667 0.0
 -358.333333 8.333333 0.0
 -354.166667 4.166667 0.0
 -370.833333 8.333333 0.0
 -366.666667 4.166667 0.0
 -383.333333 8.333333 0.0
 -379.166667 4.166667 0.0
 -395.833333 8.333333 0.0
 -391.666667 4.166667 0.0
 -408.333333 8.333333 0.0
 -404.166667 4.166667 0.0
 -420.833333 8.333333 0.0
 -416.666667 4.166667 0.0
 -433.333333 8.333333 0.0
 -429.166667 4.166667 0.0
 -445.833333 8.333333 0.0
 -441.666667 4.166667 0.0
 -458.333333 8.333333 0.0
 -454.166667 4.166667 0.0
 -470.833333 8.333333 0.0
 -466.666667 4.166667 0.0
 -483.333333 8.333333 0.0
 -479.166667 4.166667 0.0
 -495.833333 8.333333 0.0
 -491.666667 4.166667 0.0
 -508.333333 8.333333 0.0
 -504.166667 4.166667 0.0
 -520.833333 8.333333 0.0
 -516.666667 4.166667 0.0
 -533.333333 8.333333 0.0
 -529.166667 4.166667 0.0
 -545.833333 8.333333 0.0
 -541.666667 4.166667 0.0
 -558.333333 8.333333 0.0
 -554.166667 4.166667 0.0
 -570.833333 8.333333 0.0
 -566.666667 4.166667 0.0
 -583.333333 8.333333 0.0
 -579.166667 4.166667 0.0
 -595.833333 8.333333 0.0
 -591.666667 4.166667 0.0
 -608.333333 8.333333 0.0
 -604.166667 4.166667 0.0
 -620.833333 8.333333 0.0
 -616.666667 4.166667 0.0
 -633.333333 8.333333 0.0
 -629.166667 4.166667 0.0
 -645.833333 8.333333 0.0
 -641.666667 4.166667 0.0
POINT_DATA 640
VECTORS displacement double
0.082079  -2.600551  0.0
0.06565  -2.616993  0.0
0.082057  -2.551222  0.0
0.065637  -2.567666  0.0
0.082009  -2.501901  0.0
0.065606  -2.518335  0.0
0.081934  -2.452616  0.0
0.065552  -2.469033  0.0
0.081831  -2.403385  0.0
0.065477  -2.419779  0.0
0.081701  -2.354226  0.0
0.06538  -2.370593  0.0
0.081545  -2.305155  0.0
0.065263  -2.321488  0.0
0.081364  -2.256187  0.0
0.065125  -2.272482  0.0
0.081156  -2.207337  0.0
0.064967  -2.223588  0.0
0.080923  -2.158621  0.0
0.064788  -2.174824  0.0
0.080664  -2.110054  0.0
0.064588  -2.126203  0.0
0.08038  -2.061651  0.0
0.064368  -2.077741  0.0
0.08007  -2.013429  0.0
0.064127  -2.029455  0.0
0.079734  -1.965402  0.0
0.063865  -1.981358  0.0
0.079372  -1.917585  0.0
0.063583  -1.933468  0.0
0.078985  -1.869995  0.0
0.063281  -1.885798  0.0
0.078572  -1.822646  0.0
0.062958  -1.838365  0.0
0.078133  -1.775555  0.0
0.062614  -1.791184  0.0
0.077669  -1.728736  0.0
0.06225  -1.74427  0.0
0.077178  -1.682205  0.0
0.061865  -1.697639  0.0
0.076663  -1.635977  0.0
0.06146  -1.651306  0.0
0.076121  -1.590068  0.0
0.061034  -1.605286  0.0
0.075554  -1.544493  0.0
0.060588  -1.559596  0.0
0.074961  -1.499268  0.0
0.060121  -1.51425  0.0
0.074342  -1.454408  0.0
0.059633  -1.469264  0.0
0.073698  -1.409928  0.0
0.059125  -1.424654  0.0
0.073027  -1.365844  0.0
0.058596  -1.380434  0.0
0.072332  -1.322171  0.0
0.058047  -1.33662  0.0
0.07161  -1.278925  0.0
0.057477  -1.293228  0.0
0.070863  -1.236122  0.0
0.056887  -1.250273  0.0
0.07009  -1.193776  0.0
0.056276  -1.20777  0.0
0.069291  -1.151902  0.0
0.055644  -1.165735  0.0
0.068467  -1.110518  0.0
0.054992  -1.124184  0.0
0.067617  -1.069637  0.0
0.054319  -1.083131  0.0
0.066741  -1.029275  0.0
0.053626  -1.042592  0.0
0.06584  -0.989448  0.0
0.052912  -1.002583  0.0
0.064913  -0.950171  0.0
0.052178  -0.963119  0.0
0.06396  -0.91146  0.0
0.051423  -0.924215  0.0
0.062981  -0.87333  0.0
0.050647  -0.885887  0.0
0.061977  -0.835796  0.0
0.049851  -0.84815  0.0
0.060947  -0.798874  0.0
0.049035  -0.81102  0.0
0.059891  -0.762579  0.0
0.048197  -0.774512  0.0
0.05881  -0.726927  0.0
0.04734  -0.738642  0.0
0.057703  -0.691932  0.0
0.046461  -0.703424  0.0
0.05657  -0.657612  0.0
0.045562  -0.668875  0.0
0.055411  -0.62398  0.0
0.044643  -0.635009  0.0
0.054227  -0.591053  0.0
0.043703  -0.601843  0.0
0.053017  -0.558845  0.0
0.042742  -0.569392  0.0
0.051781  -0.527372  0.0
0.041761  -0.53767  0.0
0.05052  -0.496651  0.0
0.04076  -0.506694  0.0
0.049233  -0.466695  0.0
0.039737  -0.476479  0.0
0.04792  -0.437521  0.0
0.038694  -0.44704  0.0
0.046582  -0.409143  0.0
0.037631  -0.418393  0.0
0.045218  -0.381578  0.0
0.036547  -0.390553  0.0
0.043828  -0.354841  0.0
0.035443  -0.363536  0.0
0.042412  -0.328947  0.0
0.034317  -0.337357  0.0
0.040971  -0.303911  0.0
0.033172  -0.312031  0.0
0.039504  -0.27975  0.0
0.032005  -0.287574  0.0
0.038011  -0.256477  0.0
0.030819  -0.264001  0.0
0.036493  -0.23411  0.0
0.029611  -0.241328  0.0
0.034949  -0.212663  0.0
0.028383  -0.219571  0.0
0.033379  -0.192152  0.0
0.027135  -0.198743  0.0
0.031783  -0.172592  0.0
0.025866  -0.178862  0.0
0.030162  -0.153998  0.0
0.024576  -0.159942  0.0
0.028515  -0.136386  0.0
0.023266  -0.141999  0.0
0.026842  -0.119772  0.0
0.021935  -0.125049  0.0
0.025144  -0.104171  0.0
0.020584  -0.109106  0.0
0.02342  -0.089598  0.0
0.019212  -0.094186  0.0
0.02167  -0.076068  0.0
0.01782  -0.080304  0.0
0.019895  -0.063598  0.0
0.016407  -0.067477  0.0
0.018094  -0.052202  0.0
0.014973  -0.055719  0.0
0.016267  -0.041896  0.0
0.013519  -0.045045  0.0
0.014414  -0.032695  0.0
0.012044  -0.035472  0.0
0.012536  -0.024615  0.0
0.010549  -0.027014  0.0
0.010632  -0.017669  0.0
0.009033  -0.019687  0.0
0.008702  -0.011875  0.0
0.007497  -0.013505  0.0
0.006744  -0.007245  0.0
0.005939  -0.008483  0.0
0.004756  -0.003798  0.0
0.004359  -0.004638  0.0
0.002745  -0.001536  0.0
0.002757  -0.00199  0.0
0.000776  -0.000355  0.0
0.001161  -0.000551  0.0
0.032793  -2.600558  0.0
0.01637  -2.617012  0.0
0.032783  -2.551219  0.0
0.016368  -2.56767  0.0
0.032761  -2.501891  0.0
0.016358  -2.51833  0.0
0.03273  -2.452599  0.0
0.016343  -2.469023  0.0
0.03269  -2.403363  0.0
0.016325  -2.419765  0.0
0.032639  -2.354199  0.0
0.016302  -2.370575  0.0
0.032578  -2.305122  0.0
0.016274  -2.321467  0.0
0.032507  -2.256149  0.0
0.016241  -2.272457  0.0
0.032425  -2.207294  0.0
0.016204  -2.22356  0.0
0.032333  -2.158572  0.0
0.016161  -2.174791  0.0
0.032231  -2.11  0.0
0.016113  -2.126166  0.0
0.032119  -2.061592  0.0
0.016059  -2.077701  0.0
0.031997  -2.013364  0.0
0.016001  -2.029411  0.0
0.031864  -1.965331  0.0
0.015938  -1.98131  0.0
0.031721  -1.917509  0.0
0.015869  -1.933416  0.0
0.031567  -1.869914  0.0
0.015795  -1.885742  0.0
0.031403  -1.82256  0.0
0.015717  -1.838305  0.0
0.031229  -1.775463  0.0
0.015633  -1.79112  0.0
0.031045  -1.728638  0.0
0.015543  -1.744202  0.0
0.030851  -1.682102  0.0
0.015449  -1.697567  0.0
0.030646  -1.635869  0.0
0.01535  -1.651231  0.0
0.030431  -1.589954  0.0
0.015245  -1.605207  0.0
0.030205  -1.544374  0.0
0.015135  -1.559513  0.0
0.02997  -1.499143  0.0
0.015021  -1.514164  0.0
0.029724  -1.454278  0.0
0.014901  -1.469174  0.0
0.029468  -1.409793  0.0
0.014775  -1.424559  0.0
0.029201  -1.365703  0.0
0.014645  -1.380336  0.0
0.028924  -1.322025  0.0
0.01451  -1.336518  0.0
0.028637  -1.278774  0.0
0.014369  -1.293122  0.0
0.02834  -1.235965  0.0
0.014224  -1.250163  0.0
0.028032  -1.193613  0.0
0.014073  -1.207657  0.0
0.027714  -1.151735  0.0
0.013917  -1.165618  0.0
0.027386  -1.110345  0.0
0.013756  -1.124062  0.0
0.027047  -1.069458  0.0
0.013589  -1.083006  0.0
0.026699  -1.029091  0.0
0.013418  -1.042463  0.0
0.02634  -0.989259  0.0
0.013241  -1.00245  0.0
0.02597  -0.949977  0.0
0.01306  -0.962982  0.0
0.025591  -0.91126  0.0
0.012873  -0.924074  0.0
0.025201  -0.873124  0.0
0.012681  -0.885742  0.0
0.024801  -0.835585  0.0
0.012484  -0.848002  0.0
0.02439  -0.798657  0.0
0.012282  -0.810868  0.0
0.023969  -0.762357  0.0
0.012074  -0.774356  0.0
0.023538  -0.726699  0.0
0.011862  -0.738482  0.0
0.023097  -0.6917  0.0
0.011644  -0.70326  0.0
0.022645  -0.657374  0.0
0.011421  -0.668707  0.0
0.022183  -0.623737  0.0
0.011193  -0.634838  0.0
0.021711  -0.590804  0.0
0.01096  -0.601668  0.0
0.021229  -0.558591  0.0
0.010722  -0.569212  0.0
0.020736  -0.527113  0.0
0.010478  -0.537487  0.0
0.020233  -0.496386  0.0
0.01023  -0.506507  0.0
0.01972  -0.466425  0.0
0.009976  -0.476288  0.0
0.019196  -0.437245  0.0
0.009717  -0.446845  0.0
0.018662  -0.408862  0.0
0.009453  -0.418195  0.0
0.018118  -0.381292  0.0
0.009184  -0.390351  0.0
0.017564  -0.354549  0.0
0.00891  -0.36333  0.0
0.016999  -0.328649  0.0
0.008631  -0.337147  0.0
0.016424  -0.303608  0.0
0.008346  -0.311817  0.0
0.015839  -0.279441  0.0
0.008057  -0.287356  0.0
0.015243  -0.256164  0.0
0.007762  -0.26378  0.0
0.014637  -0.233791  0.0
0.007462  -0.241103  0.0
0.014021  -0.212339  0.0
0.007157  -0.219341  0.0
0.013395  -0.191822  0.0
0.006847  -0.19851  0.0
0.012758  -0.172257  0.0
0.006531  -0.178625  0.0
0.012111  -0.153658  0.0
0.006211  -0.159701  0.0
0.011454  -0.136041  0.0
0.005885  -0.141755  0.0
0.010786  -0.119421  0.0
0.005554  -0.1248  0.0
0.010109  -0.103814  0.0
0.005218  -0.108853  0.0
0.009421  -0.089236  0.0
0.004877  -0.093929  0.0
0.008722  -0.075701  0.0
0.004531  -0.080044  0.0
0.008013  -0.063225  0.0
0.00418  -0.067213  0.0
0.007294  -0.051824  0.0
0.003823  -0.055451  0.0
0.006565  -0.041512  0.0
0.003462  -0.044774  0.0
0.005826  -0.032306  0.0
0.003095  -0.035197  0.0
0.005076  -0.024221  0.0
0.002723  -0.026735  0.0
0.004316  -0.017271  0.0
0.002346  -0.019405  0.0
0.003547  -0.011471  0.0
0.001966  -0.01322  0.0
0.002769  -0.006838  0.0
0.001582  -0.008196  0.0
0.001982  -0.003387  0.0
0.001196  -0.004348  0.0
0.001182  -0.00115  0.0
0.000804  -0.001705  0.0
0.000385  -0.000196  0.0
0.000394  -0.000341  0.0
-0.016482  -2.600583  0.0
-0.032917  -2.617063  0.0
-0.016476  -2.551226  0.0
-0.032903  -2.567685  0.0
-0.016466  -2.501891  0.0
-0.032885  -2.518336  0.0
-0.016451  -2.452598  0.0
-0.032857  -2.469027  0.0
-0.016428  -2.403362  0.0
-0.032817  -2.419771  0.0
-0.0164  -2.354197  0.0
-0.032766  -2.370582  0.0
-0.016366  -2.30512  0.0
-0.032703  -2.321475  0.0
-0.016327  -2.256146  0.0
-0.032631  -2.272465  0.0
-0.016282  -2.20729  0.0
-0.032548  -2.223569  0.0
-0.016233  -2.158568  0.0
-0.032454  -2.174801  0.0
-0.016178  -2.109995  0.0
-0.032351  -2.126177  0.0
-0.016118  -2.061586  0.0
-0.032237  -2.077713  0.0
-0.016053  -2.013357  0.0
-0.032113  -2.029423  0.0
-0.015983  -1.965324  0.0
-0.031978  -1.981324  0.0
-0.015907  -1.917501  0.0
-0.031833  -1.93343  0.0
-0.015827  -1.869905  0.0
-0.031678  -1.885757  0.0
-0.015741  -1.82255  0.0
-0.031513  -1.838321  0.0
-0.01565  -1.775452  0.0
-0.031337  -1.791137  0.0
-0.015554  -1.728627  0.0
-0.031151  -1.74422  0.0
-0.015453  -1.68209  0.0
-0.030955  -1.697586  0.0
-0.015347  -1.635856  0.0
-0.030749  -1.65125  0.0
-0.015236  -1.589941  0.0
-0.030532  -1.605227  0.0
-0.015119  -1.54436  0.0
-0.030305  -1.559534  0.0
-0.014998  -1.499128  0.0
-0.030068  -1.514185  0.0
-0.014871  -1.454262  0.0
-0.02982  -1.469196  0.0
-0.014739  -1.409776  0.0
-0.029562  -1.424582  0.0
-0.014602  -1.365686  0.0
-0.029294  -1.380359  0.0
-0.01446  -1.322007  0.0
-0.029015  -1.336542  0.0
-0.014312  -1.278755  0.0
-0.028727  -1.293147  0.0
-0.01416  -1.235945  0.0
-0.028428  -1.250189  0.0
-0.014002  -1.193593  0.0
-0.028118  -1.207683  0.0
-0.013839  -1.151714  0.0
-0.027799  -1.165645  0.0
-0.013671  -1.110323  0.0
-0.027469  -1.124091  0.0
-0.013498  -1.069436  0.0
-0.027129  -1.083035  0.0
-0.01332  -1.029068  0.0
-0.026778  -1.042493  0.0
-0.013137  -0.989235  0.0
-0.026418  -1.002481  0.0
-0.012948  -0.949952  0.0
-0.026047  -0.963013  0.0
-0.012755  -0.911234  0.0
-0.025665  -0.924106  0.0
-0.012556  -0.873098  0.0
-0.025274  -0.885775  0.0
-0.012352  -0.835558  0.0
-0.024872  -0.848035  0.0
-0.012143  -0.798629  0.0
-0.02446  -0.810902  0.0
-0.011929  -0.762328  0.0
-0.024037  -0.774391  0.0
-0.01171  -0.72667  0.0
-0.023605  -0.738518  0.0
-0.011485  -0.691669  0.0
-0.023162  -0.703297  0.0
-0.011255  -0.657343  0.0
-0.022709  -0.668745  0.0
-0.011021  -0.623705  0.0
-0.022245  -0.634876  0.0
-0.010781  -0.590771  0.0
-0.021771  -0.601707  0.0
-0.010536  -0.558557  0.0
-0.021287  -0.569252  0.0
-0.010286  -0.527079  0.0
-0.020793  -0.537528  0.0
-0.01003  -0.496351  0.0
-0.020288  -0.506548  0.0
-0.00977  -0.466389  0.0
-0.019773  -0.47633  0.0
-0.009504  -0.437208  0.0
-0.019248  -0.446888  0.0
-0.009233  -0.408825  0.0
-0.018712  -0.418238  0.0
-0.008958  -0.381254  0.0
-0.018166  -0.390395  0.0
-0.008677  -0.35451  0.0
-0.01761  -0.363375  0.0
-0.00839  -0.32861  0.0
-0.017044  -0.337193  0.0
-0.008099  -0.303568  0.0
-0.016467  -0.311864  0.0
-0.007803  -0.2794  0.0
-0.01588  -0.287404  0.0
-0.007501  -0.256122  0.0
-0.015283  -0.263828  0.0
-0.007194  -0.233749  0.0
-0.014676  -0.241152  0.0
-0.006882  -0.212295  0.0
-0.014058  -0.219391  0.0
-0.006565  -0.191778  0.0
-0.01343  -0.198561  0.0
-0.006243  -0.172212  0.0
-0.012792  -0.178676  0.0
-0.005916  -0.153612  0.0
-0.012143  -0.159753  0.0
-0.005584  -0.135994  0.0
-0.011484  -0.141807  0.0
-0.005246  -0.119374  0.0
-0.010815  -0.124854  0.0
-0.004903  -0.103766  0.0
-0.010135  -0.108907  0.0
-0.004555  -0.089187  0.0
-0.009446  -0.093984  0.0
-0.004202  -0.075651  0.0
-0.008746  -0.0801  0.0
-0.003844  -0.063174  0.0
-0.008035  -0.067269  0.0
-0.003481  -0.051772  0.0
-0.007315  -0.055508  0.0
-0.003113  -0.04146  0.0
-0.006584  -0.044832  0.0
-0.002739  -0.032254  0.0
-0.005843  -0.035256  0.0
-0.00236  -0.024168  0.0
-0.005091  -0.026796  0.0
-0.001975  -0.017218  0.0
-0.004329  -0.019467  0.0
-0.001584  -0.01142  0.0
-0.003555  -0.013285  0.0
-0.001185  -0.006789  0.0
-0.00277  -0.008264  0.0
-0.000774  -0.003337  0.0
-0.001968  -0.004418  0.0
-0.000357  -0.001085  0.0
-0.001149  -0.001754  0.0
9e-06  -0.000145  0.0
-0.000364  -0.000333  0.0
-0.0658  -2.600632  0.0
-0.082286  -2.61716  0.0
-0.065764  -2.551243  0.0
-0.082226  -2.56771  0.0
-0.065715  -2.501904  0.0
-0.082166  -2.518352  0.0
-0.065648  -2.452614  0.0
-0.082087  -2.469047  0.0
-0.06556  -2.403382  0.0
-0.081984  -2.419796  0.0
-0.065451  -2.354222  0.0
-0.081857  -2.370613  0.0
-0.065322  -2.305149  0.0
-0.081705  -2.321512  0.0
-0.065172  -2.256179  0.0
-0.081527  -2.272508  0.0
-0.065002  -2.207327  0.0
-0.081323  -2.223617  0.0
-0.064811  -2.158608  0.0
-0.081093  -2.174855  0.0
-0.064599  -2.110039  0.0
-0.080838  -2.126237  0.0
-0.064367  -2.061634  0.0
-0.080557  -2.077777  0.0
-0.064114  -2.013409  0.0
-0.08025  -2.029493  0.0
-0.063841  -1.96538  0.0
-0.079918  -1.981399  0.0
-0.063547  -1.917561  0.0
-0.079559  -1.933511  0.0
-0.063233  -1.869969  0.0
-0.079176  -1.885843  0.0
-0.062898  -1.822618  0.0
-0.078766  -1.838413  0.0
-0.062542  -1.775524  0.0
-0.078331  -1.791234  0.0
-0.062166  -1.728702  0.0
-0.07787  -1.744322  0.0
-0.061769  -1.682169  0.0
-0.077383  -1.697693  0.0