# vtk DataFile Version 3.1
for FEM Programme output
ASCII
DATASET UNSTRUCTURED_GRID
POINTS 405 double
 350.0 50.0 0.0
 337.5 50.0 0.0
 325.0 50.0 0.0
 312.5 50.0 0.0
 300.0 50.0 0.0
 287.5 50.0 0.0
 275.0 50.0 0.0
 262.5 50.0 0.0
 250.0 50.0 0.0
 237.5 50.0 0.0
 225.0 50.0 0.0
 212.5 50.0 0.0
 200.0 50.0 0.0
 187.5 50.0 0.0
 175.0 50.0 0.0
 162.5 50.0 0.0
 150.0 50.0 0.0
 137.5 50.0 0.0
 125.0 50.0 0.0
 112.5 50.0 0.0
 100.0 50.0 0.0
 87.5 50.0 0.0
 75.0 50.0 0.0
 62.5 50.0 0.0
 50.0 50.0 0.0
 37.5 50.0 0.0
 25.0 50.0 0.0
 12.5 50.0 0.0
 0.0 50.0 0.0
 -12.5 50.0 0.0
 -25.0 50.0 0.0
 -37.5 50.0 0.0
 -50.0 50.0 0.0
 -62.5 50.0 0.0
 -75.0 50.0 0.0
 -87.5 50.0 0.0
 -100.0 50.0 0.0
 -112.5 50.0 0.0
 -125.0 50.0 0.0
 -137.5 50.0 0.0
 -150.0 50.0 0.0
 -162.5 50.0 0.0
 -175.0 50.0 0.0
 -187.5 50.0 0.0
 -200.0 50.0 0.0
 -212.5 50.0 0.0
 -225.0 50.0 0.0
 -237.5 50.0 0.0
 -250.0 50.0 0.0
 -262.5 50.0 0.0
 -275.0 50.0 0.0
 -287.5 50.0 0.0
 -300.0 50.0 0.0
 -312.5 50.0 0.0
 -325.0 50.0 0.0
 -337.5 50.0 0.0
 -350.0 50.0 0.0
 -362.5 50.0 0.0
 -375.0 50.0 0.0
 -387.5 50.0 0.0
 -400.0 50.0 0.0
 -412.5 50.0 0.0
 -425.0 50.0 0.0
 -437.5 50.0 0.0
 -450.0 50.0 0.0
 -462.5 50.0 0.0
 -475.0 50.0 0.0
 -487.5 50.0 0.0
 -500.0 50.0 0.0
 -512.5 50.0 0.0
 -525.0 50.0 0.0
 -537.5 50.0 0.0
 -550.0 50.0 0.0
 -562.5 50.0 0.0
 -575.0 50.0 0.0
 -587.5 50.0 0.0
 -600.0 50.0 0.0
 -612.5 50.0 0.0
 -625.0 50.0 0.0
 -637.5 50.0 0.0
 -650.0 50.0 0.0
 350.0 37.5 0.0
 337.5 37.5 0.0
 325.0 37.5 0.0
 312.5 37.5 0.0
 300.0 37.5 0.0
 287.5 37.5 0.0
 275.0 37.5 0.0
 262.5 37.5 0.0
 250.0 37.5 0.0
 237.5 37.5 0.0
 225.0 37.5 0.0
 212.5 37.5 0.0
 200.0 37.5 0.0
 187.5 37.5 0.0
 175.0 37.5 0.0
 162.5 37.5 0.0
 150.0 37.5 0.0
 137.5 37.5 0.0
 125.0 37.5 0.0
 112.5 37.5 0.0
 100.0 37.5 0.0
 87.5 37.5 0.0
 75.0 37.5 0.0
 62.5 37.5 0.0
 50.0 37.5 0.0
 37.5 37.5 0.0
 25.0 37.5 0.0
 12.5 37.5 0.0
 0.0 37.5 0.0
 -12.5 37.5 0.0
 -25.0 37.5 0.0
 -37.5 37.5 0.0
 -50.0 37.5 0.0
 -62.5 37.5 0.0
 -75.0 37.5 0.0
 -87.5 37.5 0.0
 -100.0 37.5 0.0
 -112.5 37.5 0.0
 -125.0 37.5 0.0
 -137.5 37.5 0.0
 -150.0 37.5 0.0
 -162.5 37.5 0.0
 -175.0 37.5 0.0
 -187.5 37.5 0.0
 -200.0 37.5 0.0
 -212.5 37.5 0.0
 -225.0 37.5 0.0
 -237.5 37.5 0.0
 -250.0 37.5 0.0
 -262.5 37.5 0.0
 -275.0 37.5 0.0
 -287.5 37.5 0.0
 -300.0 37.5 0.0
 -312.5 37.5 0.0
 -325.0 37.5 0.0
 -337.5 37.5 0.0
 -350.0 37.5 0.0
 -362.5 37.5 0.0
 -375.0 37.5 0.0
 -387.5 37.5 0.0
 -400.0 37.5 0.0
 -412.5 37.5 0.0
 -425.0 37.5 0.0
 -437.5 37.5 0.0
 -450.0 37.5 0.0
 -462.5 37.5 0.0
 -475.0 37.5 0.0
 -487.5 37.5 0.0
 -500.0 37.5 0.0
 -512.5 37.5 0.0
 -525.0 37.5 0.0
 -537.5 37.5 0.0
 -550.0 37.5 0.0
 -562.5 37.5 0.0
 -575.0 37.5 0.0
 -587.5 37.5 0.0
 -600.0 37.5 0.0
 -612.5 37.5 0.0
 -625.0 37.5 0.0
 -637.5 37.5 0.0
 -650.0 37.5 0.0
 350.0 25.0 0.0
 337.5 25.0 0.0
 325.0 25.0 0.0
 312.5 25.0 0.0
 300.0 25.0 0.0
 287.5 25.0 0.0
 275.0 25.0 0.0
 262.5 25.0 0.0
 250.0 25.0 0.0
 237.5 25.0 0.0
 225.0 25.0 0.0
 212.5 25.0 0.0
 200.0 25.0 0.0
 187.5 25.0 0.0
 175.0 25.0 0.0
 162.5 25.0 0.0
 150.0 25.0 0.0
 137.5 25.0 0.0
 125.0 25.0 0.0
 112.5 25.0 0.0
 100.0 25.0 0.0
 87.5 25.0 0.0
 75.0 25.0 0.0
 62.5 25.0 0.0
 50.0 25.0 0.0
 37.5 25.0 0.0
 25.0 25.0 0.0
 12.5 25.0 0.0
 0.0 25.0 0.0
 -12.5 25.0 0.0
 -25.0 25.0 0.0
 -37.5 25.0 0.0
 -50.0 25.0 0.0
 -62.5 25.0 0.0
 -75.0 25.0 0.0
 -87.5 25.0 0.0
 -100.0 25.0 0.0
 -112.5 25.0 0.0
 -125.0 25.0 0.0
 -137.5 25.0 0.0
 -150.0 25.0 0.0
 -162.5 25.0 0.0
 -175.0 25.0 0.0
 -187.5 25.0 0.0
 -200.0 25.0 0.0
 -212.5 25.0 0.0
 -225.0 25.0 0.0
 -237.5 25.0 0.0
 -250.0 25.0 0.0
 -262.5 25.0 0.0
 -275.0 25.0 0.0
 -287.5 25.0 0.0
 -300.0 25.0 0.0
 -312.5 25.0 0.0
 -325.0 25.0 0.0
 -337.5 25.0 0.0
 -350.0 25.0 0.0
 -362.5 25.0 0.0
 -375.0 25.0 0.0
 -387.5 25.0 0.0
 -400.0 25.0 0.0
 -412.5 25.0 0.0
 -425.0 25.0 0.0
 -437.5 25.0 0.0
 -450.0 25.0 0.0
 -462.5 25.0 0.0
 -475.0 25.0 0.0
 -487.5 25.0 0.0
 -500.0 25.0 0.0
 -512.5 25.0 0.0
 -525.0 25.0 0.0
 -537.5 25.0 0.0
 -550.0 25.0 0.0
 -562.5 25.0 0.0
 -575.0 25.0 0.0
 -587.5 25.0 0.0
 -600.0 25.0 0.0
 -612.5 25.0 0.0
 -625.0 25.0 0.0
 -637.5 25.0 0.0
 -650.0 25.0 0.0
 350.0 12.5 0.0
 337.5 12.5 0.0
 325.0 12.5 0.0
 312.5 12.5 0.0
 300.0 12.5 0.0
 287.5 12.5 0.0
 275.0 12.5 0.0
 262.5 12.5 0.0
 250.0 12.5 0.0
 237.5 12.5 0.0
 225.0 12.5 0.0
 212.5 12.5 0.0
 200.0 12.5 0.0
 187.5 12.5 0.0
 175.0 12.5 0.0
 162.5 12.5 0.0
 150.0 12.5 0.0
 137.5 12.5 0.0
 125.0 12.5 0.0
 112.5 12.5 0.0
 100.0 12.5 0.0
 87.5 12.5 0.0
 75.0 12.5 0.0
 62.5 12.5 0.0
 50.0 12.5 0.0
 37.5 12.5 0.0
 25.0 12.5 0.0
 12.5 12.5 0.0
 0.0 12.5 0.0
 -12.5 12.5 0.0
 -25.0 12.5 0.0
 -37.5 12.5 0.0
 -50.0 12.5 0.0
 -62.5 12.5 0.0
 -75.0 12.5 0.0
 -87.5 12.5 0.0
 -100.0 12.5 0.0
 -112.5 12.5 0.0
 -125.0 12.5 0.0
 -137.5 12.5 0.0
 -150.0 12.5 0.0
 -162.5 12.5 0.0
 -175.0 12.5 0.0
 -187.5 12.5 0.0
 -200.0 12.5 0.0
 -212.5 12.5 0.0
 -225.0 12.5 0.0
 -237.5 12.5 0.0
 -250.0 12.5 0.0
 -262.5 12.5 0.0
 -275.0 12.5 0.0
 -287.5 12.5 0.0
 -300.0 12.5 0.0
 -312.5 12.5 0.0
 -325.0 12.5 0.0
 -337.5 12.5 0.0
 -350.0 12.5 0.0
 -362.5 12.5 0.0
 -375.0 12.5 0.0
 -387.5 12.5 0.0
 -400.0 12.5 0.0
 -412.5 12.5 0.0
 -425.0 12.5 0.0
 -437.5 12.5 0.0
 -450.0 12.5 0.0
 -462.5 12.5 0.0
 -475.0 12.5 0.0
 -487.5 12.5 0.0
 -500.0 12.5 0.0
 -512.5 12.5 0.0
 -525.0 12.5 0.0
 -537.5 12.5 0.0
 -550.0 12.5 0.0
 -562.5 12.5 0.0
 -575.0 12.5 0.0
 -587.5 12.5 0.0
 -600.0 12.5 0.0
 -612.5 12.5 0.0
 -625.0 12.5 0.0
 -637.5 12.5 0.0
 -650.0 12.5 0.0
 350.0 0.0 0.0
 337.5 0.0 0.0
 325.0 0.0 0.0
 312.5 0.0 0.0
 300.0 0.0 0.0
 287.5 0.0 0.0
 275.0 0.0 0.0
 262.5 0.0 0.0
 250.0 0.0 0.0
 237.5 0.0 0.0
 225.0 0.0 0.0
 212.5 0.0 0.0
 200.0 0.0 0.0
 187.5 0.0 0.0
 175.0 0.0 0.0
 162.5 0.0 0.0
 150.0 0.0 0.0
 137.5 0.0 0.0
 125.0 0.0 0.0
 112.5 0.0 0.0
 100.0 0.0 0.0
 87.5 0.0 0.0
 75.0 0.0 0.0
 62.5 0.0 0.0
 50.0 0.0 0.0
 37.5 0.0 0.0
 25.0 0.0 0.0
 12.5 0.0 0.0
 0.0 0.0 0.0
 -12.5 0.0 0.0
 -25.0 0.0 0.0
 -37.5 0.0 0.0
 -50.0 0.0 0.0
 -62.5 0.0 0.0
 -75.0 0.0 0.0
 -87.5 0.0 0.0
 -100.0 0.0 0.0
 -112.5 0.0 0.0
 -125.0 0.0 0.0
 -137.5 0.0 0.0
 -150.0 0.0 0.0
 -162.5 0.0 0.0
 -175.0 0.0 0.0
 -187.5 0.0 0.0
 -200.0 0.0 0.0
 -212.5 0.0 0.0
 -225.0 0.0 0.0
 -237.5 0.0 0.0
 -250.0 0.0 0.0
 -262.5 0.0 0.0
 -275.0 0.0 0.0
 -287.5 0.0 0.0
 -300.0 0.0 0.0
 -312.5 0.0 0.0
 -325.0 0.0 0.0
 -337.5 0.0 0.0
 -350.0 0.0 0.0
 -362.5 0.0 0.0
 -375.0 0.0 0.0
 -387.5 0.0 0.0
 -400.0 0.0 0.0
 -412.5 0.0 0.0
 -425.0 0.0 0.0
 -437.5 0.0 0.0
 -450.0 0.0 0.0
 -462.5 0.0 0.0
 -475.0 0.0 0.0
 -487.5 0.0 0.0
 -500.0 0.0 0.0
 -512.5 0.0 0.0
 -525.0 0.0 0.0
 -537.5 0.0 0.0
 -550.0 0.0 0.0
 -562.5 0.0 0.0
 -575.0 0.0 0.0
 -587.5 0.0 0.0
 -600.0 0.0 0.0
 -612.5 0.0 0.0
 -625.0 0.0 0.0
 -637.5 0.0 0.0
 -650.0 0.0 0.0
CELLS 640 2560
3 0 1 82
3 82 81 0
3 1 2 83
3 83 82 1
3 2 3 84
3 84 83 2
3 3 4 85
3 85 84 3
3 4 5 86
3 86 85 4
3 5 6 87
3 87 86 5
3 6 7 88
3 88 87 6
3 7 8 89
3 89 88 7
3 8 9 90
3 90 89 8
3 9 10 91
3 91 90 9
3 10 11 92
3 92 91 10
3 11 12 93
3 93 92 11
3 12 13 94
3 94 93 12
3 13 14 95
3 95 94 13
3 14 15 96
3 96 95 14
3 15 16 97
3 97 96 15
3 16 17 98
3 98 97 16
3 17 18 99
3 99 98 17
3 18 19 100
3 100 99 18
3 19 20 101
3 101 100 19
3 20 21 102
3 102 101 20
3 21 22 103
3 103 102 21
3 22 23 104
3 104 103 22
3 23 24 105
3 105 104 23
3 24 25 106
3 106 105 24
3 25 26 107
3 107 106 25
3 26 27 108
3 108 107 26
3 27 28 109
3 109 108 27
3 28 29 110
3 110 109 28
3 29 30 111
3 111 110 29
3 30 31 112
3 112 111 30
3 31 32 113
3 113 112 31
3 32 33 114
3 114 113 32
3 33 34 115
3 115 114 33
3 34 35 116
3 116 115 34
3 35 36 117
3 117 116 35
3 36 37 118
3 118 117 36
3 37 38 119
3 119 118 37
3 38 39 120
3 120 119 38
3 39 40 121
3 121 120 39
3 40 41 122
3 122 121 40
3 41 42 123
3 123 122 41
3 42 43 124
3 124 123 42
3 43 44 125
3 125 124 43
3 44 45 126
3 126 125 44
3 45 46 127
3 127 126 45
3 46 47 128
3 128 127 46
3 47 48 129
3 129 128 47
3 48 49 130
3 130 129 48
3 49 50 131
3 131 130 49
3 50 51 132
3 132 131 50
3 51 52 133
3 133 132 51
3 52 53 134
3 134 133 52
3 53 54 135
3 135 134 53
3 54 55 136
3 136 135 54
3 55 56 137
3 137 136 55
3 56 57 138
3 138 137 56
3 57 58 139
3 139 138 57
3 58 59 140
3 140 139 58
3 59 60 141
3 141 140 59
3 60 61 142
3 142 141 60
3 61 62 143
3 143 142 61
3 62 63 144
3 144 143 62
3 63 64 145
3 145 144 63
3 64 65 146
3 146 145 64
3 65 66 147
3 147 146 65
3 66 67 148
3 148 147 66
3 67 68 149
3 149 148 67
3 68 69 150
3 150 149 68
3 69 70 151
3 151 150 69
3 70 71 152
3 152 151 70
3 71 72 153
3 153 152 71
3 72 73 154
3 154 153 72
3 73 74 155
3 155 154 73
3 74 75 156
3 156 155 74
3 75 76 157
3 157 156 75
3 76 77 158
3 158 157 76
3 77 78 159
3 159 158 77
3 78 79 160
3 160 159 78
3 79 80 161
3 161 160 79
3 81 82 163
3 163 162 81
3 82 83 164
3 164 163 82
3 83 84 165
3 165 164 83
3 84 85 166
3 166 165 84
3 85 86 167
3 167 166 85
3 86 87 168
3 168 167 86
3 87 88 169
3 169 168 87
3 88 89 170
3 170 169 88
3 89 90 171
3 171 170 89
3 90 91 172
3 172 171 90
3 91 92 173
3 173 172 91
3 92 93 174
3 174 173 92
3 93 94 175
3 175 174 93
3 94 95 176
3 176 175 94
3 95 96 177
3 177 176 95
3 96 97 178
3 178 177 96
3 97 98 179
3 179 178 97
3 98 99 180
3 180 179 98
3 99 100 181
3 181 180 99
3 100 101 182
3 182 181 100
3 101 102 183
3 183 182 101
3 102 103 184
3 184 183 102
3 103 104 185
3 185 184 103
3 104 105 186
3 186 185 104
3 105 106 187
3 187 186 105
3 106 107 188
3 188 187 106
3 107 108 189
3 189 188 107
3 108 109 190
3 190 189 108
3 109 110 191
3 191 190 109
3 110 111 192
3 192 191 110
3 111 112 193
3 193 192 111
3 112 113 194
3 194 193 112
3 113 114 195
3 195 194 113
3 114 115 196
3 196 195 114
3 115 116 197
3 197 196 115
3 116 117 198
3 198 197 116
3 117 118 199
3 199 198 117
3 118 119 200
3 200 199 118
3 119 120 201
3 201 200 119
3 120 121 202
3 202 201 120
3 121 122 203
3 203 202 121
3 122 123 204
3 204 203 122
3 123 124 205
3 205 204 123
3 124 125 206
3 206 205 124
3 125 126 207
3 207 206 125
3 126 127 208
3 208 207 126
3 127 128 209
3 209 208 127
3 128 129 210
3 210 209 128
3 129 130 211
3 211 210 129
3 130 131 212
3 212 211 130
3 131 132 213
3 213 212 131
3 132 133 214
3 214 213 132
3 133 134 215
3 215 214 133
3 134 135 216
3 216 215 134
3 135 136 217
3 217 216 135
3 136 137 218
3 218 217 136
3 137 138 219
3 219 218 137
3 138 139 220
3 220 219 138
3 139 140 221
3 221 220 139
3 140 141 222
3 222 221 140
3 141 142 223
3 223 222 141
3 142 143 224
3 224 223 142
3 143 144 225
3 225 224 143
3 144 145 226
3 226 225 144
3 145 146 227
3 227 226 145
3 146 147 228
3 228 227 146
3 147 148 229
3 229 228 147
3 148 149 230
3 230 229 148
3 149 150 231
3 231 230 149
3 150 151 232
3 232 231 150
3 151 152 233
3 233 232 151
3 152 153 234
3 234 233 152
3 153 154 235
3 235 234 153
3 154 155 236
3 236 235 154
3 155 156 237
3 237 236 155
3 156 157 238
3 238 237 156
3 157 158 239
3 239 238 157
3 158 159 240
3 240 239 158
3 159 160 241
3 241 240 159
3 160 161 242
3 242 241 160
3 162 163 244
3 244 243 162
3 163 164 245
3 245 244 163
3 164 165 246
3 246 245 164
3 165 166 247
3 247 246 165
3 166 167 248
3 248 247 166
3 167 168 249
3 249 248 167
3 168 169 250
3 250 249 168
3 169 170 251
3 251 250 169
3 170 171 252
3 252 251 170
3 171 172 253
3 253 252 171
3 172 173 254
3 254 253 172
3 173 174 255
3 255 254 173
3 174 175 256
3 256 255 174
3 175 176 257
3 257 256 175
3 176 177 258
3 258 257 176
3 177 178 259
3 259 258 177
3 178 179 260
3 260 259 178
3 179 180 261
3 261 260 179
3 180 181 262
3 262 261 180
3 181 182 263
3 263 262 181
3 182 183 264
3 264 263 182
3 183 184 265
3 265 264 183
3 184 185 266
3 266 265 184
3 185 186 267
3 267 266 185
3 186 187 268
3 268 267 186
3 187 188 269
3 269 268 187
3 188 189 270
3 270 269 188
3 189 190 271
3 271 270 189
3 190 191 272
3 272 271 190
3 191 192 273
3 273 272 191
3 192 193 274
3 274 273 192
3 193 194 275
3 275 274 193
3 194 195 276
3 276 275 194
3 195 196 277
3 277 276 195
3 196 197 278
3 278 277 196
3 197 198 279
3 279 278 197
3 198 199 280
3 280 279 198
3 199 200 281
3 281 280 199
3 200 201 282
3 282 281 200
3 201 202 283
3 283 282 201
3 202 203 284
3 284 283 202
3 203 204 285
3 285 284 203
3 204 205 286
3 286 285 204
3 205 206 287
3 287 286 205
3 206 207 288
3 288 287 206
3 207 208 289
3 289 288 207
3 208 209 290
3 290 289 208
3 209 210 291
3 291 290 209
3 210 211 292
3 292 291 210
3 211 212 293
3 293 292 211
3 212 213 294
3 294 293 212
3 213 214 295
3 295 294 213
3 214 215 296
3 296 295 214
3 215 216 297
3 297 296 215
3 216 217 298
3 298 297 216
3 217 218 299
3 299 298 217
3 218 219 300
3 300 299 218
3 219 220 301
3 301 300 219
3 220 221 302
3 302 301 220
3 221 222 303
3 303 302 221
3 222 223 304
3 304 303 222
3 223 224 305
3 305 304 223
3 224 225 306
3 306 305 224
3 225 226 307
3 307 306 225
3 226 227 308
3 308 307 226
3 227 228 309
3 309 308 227
3 228 229 310
3 310 309 228
3 229 230 311
3 311 310 229
3 230 231 312
3 312 311 230
3 231 232 313
3 313 312 231
3 232 233 314
3 314 313 232
3 233 234 315
3 315 314 233
3 234 235 316
3 316 315 234
3 235 236 317
3 317 316 235
3 236 237 318
3 318 317 236
3 237 238 319
3 319 318 237
3 238 239 320
3 320 319 238
3 239 240 321
3 321 320 239
3 240 241 322
3 322 321 240
3 241 242 323
3 323 322 241
3 243 244 325
3 325 324 243
3 244 245 326
3 326 325 244
3 245 246 327
3 327 326 245
3 246 247 328
3 328 327 246
3 247 248 329
3 329 328 247
3 248 249 330
3 330 329 248
3 249 250 331
3 331 330 249
3 250 251 332
3 332 331 250
3 251 252 333
3 333 332 251
3 252 253 334
3 334 333 252
3 253 254 335
3 335 334 253
3 254 255 336
3 336 335 254
3 255 256 337
3 337 336 255
3 256 257 338
3 338 337 256
3 257 258 339
3 339 338 257
3 258 259 340
3 340 339 258
3 259 260 341
3 341 340 259
3 260 261 342
3 342 341 260
3 261 262 343
3 343 342 261
3 262 263 344
3 344 343 262
3 263 264 345
3 345 344 263
3 264 265 346
3 346 345 264
3 265 266 347
3 347 346 265
3 266 267 348
3 348 347 266
3 267 268 349
3 349 348 267
3 268 269 350
3 350 349 268
3 269 270 351
3 351 350 269
3 270 271 352
3 352 351 270
3 271 272 353
3 353 352 271
3 272 273 354
3 354 353 272
3 273 274 355
3 355 354 273
3 274 275 356
3 356 355 274
3 275 276 357
3 357 356 275
3 276 277 358
3 358 357 276
3 277 278 359
3 359 358 277
3 278 279 360
3 360 359 278
3 279 280 361
3 361 360 279
3 280 281 362
3 362 361 280
3 281 282 363
3 363 362 281
3 282 283 364
3 364 363 282
3 283 284 365
3 365 364 283
3 284 285 366
3 366 365 284
3 285 286 367
3 367 366 285
3 286 287 368
3 368 367 286
3 287 288 369
3 369 368 287
3 288 289 370
3 370 369 288
3 289 290 371
3 371 370 289
3 290 291 372
3 372 371 290
3 291 292 373
3 373 372 291
3 292 293 374
3 374 373 292
3 293 294 375
3 375 374 293
3 294 295 376
3 376 375 294
3 295 296 377
3 377 376 295
3 296 297 378
3 378 377 296
3 297 298 379
3 379 378 297
3 298 299 380
3 380 379 298
3 299 300 381
3 381 380 299
3 300 301 382
3 382 381 300
3 301 302 383
3 383 382 301
3 302 303 384
3 384 383 302
3 303 304 385
3 385 384 303
3 304 305 386
3 386 385 304
3 305 306 387
3 387 386 305
3 306 307 388
3 388 387 306
3 307 308 389
3 389 388 307
3 308 309 390
3 390 389 308
3 309 310 391
3 391 390 309
3 310 311 392
3 392 391 310
3 311 312 393
3 393 392 311
3 312 313 394
3 394 393 312
3 313 314 395
3 395 394 313
3 314 315 396
3 396 395 314
3 315 316 397
3 397 396 315
3 316 317 398
3 398 397 316
3 317 318 399
3 399 398 317
3 318 319 400
3 400 399 318
3 319 320 401
3 401 400 319
3 320 321 402
3 402 401 320
3 321 322 403
3 403 402 321
3 322 323 404
3 404 403 322
CELL_TYPES 640
5
5
5
5
5
5
5
5
5
5
5
5
5
5
5
5
5
5
5
5
5
5
5
5
5
5
5
5
5
5
5
5
5
5
5
5
5
5
5
5
5
5
5
5
5
5
5
5
5
5
5
5
5
5
5
5
5
5
5
5
5
5
5
5
5
5
5
5
5
5
5
5
5
5
5
5
5
5
5
5
5
5
5
5
5
5
5
5
5
5
5
5
5
5
5
5
5
5
5
5
5
5
5
5
5
5
5
5
5
5
5
5
5
5
5
5
5
5
5
5
5
5
5
5
5
5
5
5
5
5
5
5
5
5
5
5
5
5
5
5
5
5
5
5
5
5
5
5
5
5
5
5
5
5
5
5
5
5
5
5
5
5
5
5
5
5
5
5
5
5
5
5
5
5
5
5
5
5
5
5
5
5
5
5
5
5
5
5
5
5
5
5
5
5
5
5
5
5
5
5
5
5
5
5
5
5
5
5
5
5
5
5
5
5
5
5
5
5
5
5
5
5
5
5
5
5
5
5
5
5
5
5
5
5
5
5
5
5
5
5
5
5
5
5
5
5
5
5
5
5
5
5
5
5
5
5
5
5
5
5
5
5
5
5
5
5
5
5
5
5
5
5
5
5
5
5
5
5
5
5
5
5
5
5
5
5
5
5
5
5
5
5
5
5
5
5
5
5
5
5
5
5
5
5
5
5
5
5
5
5
5
5
5
5
5
5
5
5
5
5
5
5
5
5
5
5
5
5
5
5
5
5
5
5
5
5
5
5
5
5
5
5
5
5
5
5
5
5
5
5
5
5
5
5
5
5
5
5
5
5
5
5
5
5
5
5
5
5
5
5
5
5
5
5
5
5
5
5
5
5
5
5
5
5
5
5
5
5
5
5
5
5
5
5
5
5
5
5
5
5
5
5
5
5
5
5
5
5
5
5
5
5
5
5
5
5
5
5
5
5
5
5
5
5
5
5
5
5
5
5
5
5
5
5
5
5
5
5
5
5
5
5
5
5
5
5
5
5
5
5
5
5
5
5
5
5
5
5
5
5
5
5
5
5
5
5
5
5
5
5
5
5
5
5
5
5
5
5
5
5
5
5
5
5
5
5
5
5
5
5
5
5
5
5
5
5
5
5
5
5
5
5
5
5
5
5
5
5
5
5
5
5
5
5
5
5
5
5
5
5
5
5
5
5
5
5
5
5
5
5
5
5
5
5
5
5
5
5
5
5
5
5
5
5
5
5
5
5
5
5
5
5
5
5
5
5
5
5
5
5
5
5
5
5
5
5
5
5
5
5
5
5
5
5
5
5
5
5
5
5
5
5
5
5
5
5
5
5
5
5
5
5
5
5
5
5
5
5
5
5
5
5
5
5
5
5
5
5
5
5
5
5
5
5
5
5
5
5
5
5
5
5
5
5
5
5
5
5
5
5
5
5
5
5
5
5
5
5
5
5
POINT_DATA 405
VECTORS displacement double
0.098517  -2.63343  0.0
0.098508  -2.584112  0.0
0.098472  -2.534781  0.0
0.098402  -2.48547  0.0
0.098298  -2.436201  0.0
0.098162  -2.386993  0.0
0.097994  -2.337862  0.0
0.097794  -2.288825  0.0
0.097564  -2.239895  0.0
0.097302  -2.191088  0.0
0.09701  -2.142421  0.0
0.096687  -2.093907  0.0
0.096333  -2.045564  0.0
0.095948  -1.997405  0.0
0.095533  -1.949447  0.0
0.095086  -1.901705  0.0
0.094609  -1.854194  0.0
0.094101  -1.80693  0.0
0.093562  -1.759928  0.0
0.092992  -1.713204  0.0
0.092391  -1.666773  0.0
0.09176  -1.62065  0.0
0.091097  -1.574852  0.0
0.090404  -1.529392  0.0
0.08968  -1.484287  0.0
0.088925  -1.439553  0.0
0.088139  -1.395204  0.0
0.087323  -1.351256  0.0
0.086475  -1.307725  0.0
0.085597  -1.264625  0.0
0.084688  -1.221973  0.0
0.083748  -1.179783  0.0
0.082777  -1.138072  0.0
0.081775  -1.096854  0.0
0.080742  -1.056145  0.0
0.079679  -1.01596  0.0
0.078585  -0.976316  0.0
0.07746  -0.937226  0.0
0.076304  -0.898708  0.0
0.075117  -0.860775  0.0
0.073899  -0.823444  0.0
0.072651  -0.78673  0.0
0.071371  -0.750648  0.0
0.070061  -0.715214  0.0
0.06872  -0.680443  0.0
0.067348  -0.646351  0.0
0.065946  -0.612953  0.0
0.064512  -0.580264  0.0
0.063048  -0.5483  0.0
0.061552  -0.517077  0.0
0.060026  -0.48661  0.0
0.058469  -0.456913  0.0
0.056881  -0.428003  0.0
0.055263  -0.399896  0.0
0.053613  -0.372605  0.0
0.051933  -0.346148  0.0
0.050222  -0.320539  0.0
0.04848  -0.295794  0.0
0.046707  -0.271927  0.0
0.044903  -0.248956  0.0
0.043068  -0.226894  0.0
0.041203  -0.205758  0.0
0.039307  -0.185563  0.0
0.037379  -0.166323  0.0
0.035421  -0.148056  0.0
0.033433  -0.130776  0.0
0.031413  -0.114498  0.0
0.029362  -0.099238  0.0
0.027281  -0.085012  0.0
0.025169  -0.071834  0.0
0.023026  -0.059721  0.0
0.020852  -0.048687  0.0
0.018647  -0.038749  0.0
0.016412  -0.02992  0.0
0.014145  -0.022217  0.0
0.011848  -0.015654  0.0
0.009518  -0.010247  0.0
0.007153  -0.00601  0.0
0.004752  -0.002957  0.0
0.002328  -0.001064  0.0
0.0  0.0  0.0
0.049219  -2.633436  0.0
0.049213  -2.584112  0.0
0.049191  -2.534772  0.0
0.049154  -2.485452  0.0
0.0491  -2.436176  0.0
0.049032  -2.386961  0.0
0.048948  -2.337824  0.0
0.048848  -2.288779  0.0
0.048733  -2.239842  0.0
0.048603  -2.191029  0.0
0.048457  -2.142354  0.0
0.048296  -2.093834  0.0
0.04812  -2.045483  0.0
0.047928  -1.997318  0.0
0.04772  -1.949353  0.0
0.047497  -1.901604  0.0
0.047259  -1.854086  0.0
0.047006  -1.806815  0.0
0.046736  -1.759806  0.0
0.046452  -1.713075  0.0
0.046152  -1.666637  0.0
0.045837  -1.620507  0.0
0.045506  -1.574702  0.0
0.04516  -1.529235  0.0
0.044798  -1.484124  0.0
0.044421  -1.439382  0.0
0.044028  -1.395026  0.0
0.043621  -1.351072  0.0
0.043197  -1.307533  0.0
0.042758  -1.264427  0.0
0.042304  -1.221767  0.0
0.041835  -1.179571  0.0
0.04135  -1.137852  0.0
0.040849  -1.096628  0.0
0.040333  -1.055912  0.0
0.039802  -1.01572  0.0
0.039255  -0.976069  0.0
0.038693  -0.936972  0.0
0.038116  -0.898447  0.0
0.037523  -0.860507  0.0
0.036914  -0.823169  0.0
0.03629  -0.786448  0.0
0.035651  -0.750359  0.0
0.034996  -0.714918  0.0
0.034326  -0.68014  0.0
0.033641  -0.646041  0.0
0.03294  -0.612636  0.0
0.032224  -0.579941  0.0
0.031492  -0.54797  0.0
0.030744  -0.51674  0.0
0.029982  -0.486265  0.0
0.029204  -0.456562  0.0
0.02841  -0.427645  0.0
0.027601  -0.399531  0.0
0.026777  -0.372233  0.0
0.025937  -0.345769  0.0
0.025082  -0.320153  0.0
0.024211  -0.295401  0.0
0.023325  -0.271528  0.0
0.022424  -0.248549  0.0
0.021507  -0.22648  0.0
0.020575  -0.205337  0.0
0.019627  -0.185135  0.0
0.018664  -0.165889  0.0
0.017685  -0.147615  0.0
0.016691  -0.130327  0.0
0.015682  -0.114043  0.0
0.014657  -0.098776  0.0
0.013617  -0.084543  0.0
0.012561  -0.071358  0.0
0.01149  -0.059238  0.0
0.010403  -0.048197  0.0
0.009301  -0.038252  0.0
0.008184  -0.029416  0.0
0.007051  -0.021707  0.0
0.005903  -0.015137  0.0
0.004739  -0.009723  0.0
0.00356  -0.005479  0.0
0.002363  -0.002426  0.0
0.001156  -0.000587  0.0
0.0  0.0  0.0
-5.5e-05  -2.633474  0.0
-5.3e-05  -2.584125  0.0
-5.7e-05  -2.534772  0.0
-6.1e-05  -2.485447  0.0
-6.3e-05  -2.436169  0.0
-6.3e-05  -2.386952  0.0
-6.3e-05  -2.337812  0.0
-6.2e-05  -2.288765  0.0
-6.2e-05  -2.239826  0.0
-6.1e-05  -2.19101  0.0
-6e-05  -2.142334  0.0
-5.9e-05  -2.093811  0.0
-5.8e-05  -2.045458  0.0
-5.8e-05  -1.99729  0.0
-5.7e-05  -1.949323  0.0
-5.6e-05  -1.901572  0.0
-5.5e-05  -1.854052  0.0
-5.4e-05  -1.806778  0.0
-5.3e-05  -1.759767  0.0
-5.3e-05  -1.713034  0.0
-5.2e-05  -1.666593  0.0
-5.1e-05  -1.620462  0.0
-5e-05  -1.574654  0.0
-4.9e-05  -1.529185  0.0
-4.9e-05  -1.484071  0.0
-4.8e-05  -1.439327  0.0
-4.7e-05  -1.394969  0.0
-4.6e-05  -1.351012  0.0
-4.5e-05  -1.307471  0.0
-4.4e-05  -1.264362  0.0
-4.4e-05  -1.221701  0.0
-4.3e-05  -1.179502  0.0
-4.2e-05  -1.137781  0.0
-4.1e-05  -1.096554  0.0
-4e-05  -1.055836  0.0
-3.9e-05  -1.015642  0.0
-3.9e-05  -0.975988  0.0
-3.8e-05  -0.936889  0.0
-3.7e-05  -0.898361  0.0
-3.6e-05  -0.860419  0.0
-3.5e-05  -0.823079  0.0
-3.4e-05  -0.786356  0.0
-3.4e-05  -0.750265  0.0
-3.3e-05  -0.714821  0.0
-3.2e-05  -0.680041  0.0
-3.1e-05  -0.64594  0.0
-3e-05  -0.612533  0.0
-3e-05  -0.579835  0.0
-2.9e-05  -0.547862  0.0
-2.8e-05  -0.516629  0.0
-2.7e-05  -0.486152  0.0
-2.6e-05  -0.456447  0.0
-2.5e-05  -0.427528  0.0
-2.5e-05  -0.399411  0.0
-2.4e-05  -0.372111  0.0
-2.3e-05  -0.345645  0.0
-2.2e-05  -0.320026  0.0
-2.1e-05  -0.295272  0.0
-2e-05  -0.271396  0.0
-2e-05  -0.248415  0.0
-1.9e-05  -0.226344  0.0
-1.8e-05  -0.205199  0.0
-1.7e-05  -0.184994  0.0
-1.6e-05  -0.165746  0.0
-1.5e-05  -0.147469  0.0
-1.5e-05  -0.13018  0.0
-1.4e-05  -0.113893  0.0
-1.3e-05  -0.098624  0.0
-1.2e-05  -0.084388  0.0
-1.1e-05  -0.071201  0.0
-1.1e-05  -0.059079  0.0
-1e-05  -0.048036  0.0
-9e-06  -0.038088  0.0
-8e-06  -0.029251  0.0
-7e-06  -0.021539  0.0
-5e-06  -0.014969  0.0
-1e-06  -0.009554  0.0
8e-06  -0.005311  0.0
2.2e-05  -0.002255  0.0
2.6e-05  -0.000435  0.0
0.0  0.0  0.0
-0.049357  -2.633565  0.0
-0.049339  -2.58415  0.0
-0.049318  -2.53478  0.0
-0.049282  -2.485455  0.0
-0.049229  -2.436179  0.0
-0.04916  -2.386965  0.0
-0.049074  -2.337828  0.0
-0.048973  -2.288784  0.0
-0.048857  -2.239847  0.0
-0.048725  -2.191034  0.0
-0.048577  -2.14236  0.0
-0.048415  -2.093839  0.0
-0.048236  -2.045489  0.0
-0.048043  -1.997323  0.0
-0.047834  -1.949358  0.0
-0.047609  -1.901609  0.0
-0.047369  -1.854091  0.0
-0.047114  -1.80682  0.0
-0.046843  -1.759812  0.0
-0.046557  -1.713081  0.0
-0.046256  -1.666642  0.0
-0.045939  -1.620513  0.0
-0.045606  -1.574707  0.0
-0.045258  -1.529241  0.0
-0.044895  -1.484129  0.0
-0.044516  -1.439388  0.0
-0.044122  -1.395032  0.0
-0.043713  -1.351077  0.0
-0.043288  -1.307539  0.0
-0.042847  -1.264432  0.0
-0.042391  -1.221773  0.0
-0.04192  -1.179576  0.0
-0.041433  -1.137858  0.0
-0.040931  -1.096633  0.0
-0.040414  -1.055917  0.0
-0.039881  -1.015726  0.0
-0.039333  -0.976074  0.0
-0.038769  -0.936978  0.0
-0.03819  -0.898452  0.0
-0.037595  -0.860512  0.0
-0.036985  -0.823174  0.0
-0.036359  -0.786453  0.0
-0.035718  -0.750365  0.0
-0.035062  -0.714924  0.0
-0.03439  -0.680146  0.0
-0.033703  -0.646047  0.0
-0.033001  -0.612642  0.0
-0.032283  -0.579946  0.0
-0.031549  -0.547976  0.0
-0.0308  -0.516745  0.0
-0.030036  -0.486271  0.0
-0.029256  -0.456568  0.0
-0.028461  -0.427651  0.0
-0.02765  -0.399536  0.0
-0.026824  -0.372239  0.0
-0.025983  -0.345775  0.0
-0.025126  -0.320159  0.0
-0.024254  -0.295406  0.0
-0.023366  -0.271533  0.0
-0.022463  -0.248555  0.0
-0.021545  -0.226486  0.0
-0.020611  -0.205343  0.0
-0.019661  -0.18514  0.0
-0.018696  -0.165894  0.0
-0.017716  -0.14762  0.0
-0.016721  -0.130333  0.0
-0.015709  -0.114048  0.0
-0.014683  -0.098782  0.0
-0.013641  -0.084548  0.0
-0.012584  -0.071364  0.0
-0.011511  -0.059243  0.0
-0.010423  -0.048203  0.0
-0.009319  -0.038257  0.0
-0.0082  -0.029423  0.0
-0.007065  -0.021714  0.0
-0.005914  -0.015147  0.0
-0.004747  -0.009738  0.0
-0.003561  -0.005501  0.0
-0.002352  -0.002444  0.0
-0.001118  -0.000564  0.0
0.0  0.0  0.0
-0.098796  -2.633734  0.0
-0.098706  -2.584181  0.0
-0.098634  -2.534799  0.0
-0.098546  -2.485477  0.0
-0.098433  -2.436208  0.0
-0.098292  -2.387002  0.0
-0.098121  -2.337872  0.0
-0.097919  -2.288835  0.0
-0.097687  -2.239906  0.0
-0.097424  -2.191099  0.0
-0.09713  -2.142432  0.0
-0.096806  -2.093918  0.0
-0.09645  -2.045575  0.0
-0.096064  -1.997416  0.0
-0.095646  -1.949458  0.0
-0.095198  -1.901716  0.0
-0.094719  -1.854205  0.0
-0.094209  -1.806941  0.0
-0.093669  -1.759939  0.0
-0.093097  -1.713215  0.0
-0.092495  -1.666784  0.0
-0.091862  -1.620661  0.0
-0.091198  -1.574863  0.0
-0.090503  -1.529403  0.0
-0.089777  -1.484299  0.0
-0.08902  -1.439564  0.0
-0.088233  -1.395215  0.0
-0.087415  -1.351267  0.0
-0.086566  -1.307736  0.0
-0.085686  -1.264636  0.0
-0.084775  -1.221984  0.0
-0.083833  -1.179794  0.0
-0.082861  -1.138083  0.0
-0.081857  -1.096865  0.0
-0.080823  -1.056156  0.0
-0.079758  -1.015971  0.0
-0.078662  -0.976327  0.0
-0.077535  -0.937237  0.0
-0.076378  -0.898719  0.0
-0.075189  -0.860786  0.0
-0.07397  -0.823455  0.0
-0.07272  -0.786741  0.0
-0.071439  -0.750659  0.0
-0.070127  -0.715225  0.0
-0.068784  -0.680454  0.0
-0.067411  -0.646362  0.0
-0.066006  -0.612964  0.0
-0.064571  -0.580275  0.0
-0.063105  -0.548312  0.0
-0.061608  -0.517088  0.0
-0.06008  -0.486621  0.0
-0.058522  -0.456924  0.0
-0.056932  -0.428014  0.0
-0.055312  -0.399907  0.0
-0.053661  -0.372616  0.0
-0.051979  -0.346159  0.0
-0.050266  -0.32055  0.0
-0.048522  -0.295805  0.0
-0.046748  -0.271938  0.0
-0.044942  -0.248967  0.0
-0.043106  -0.226905  0.0
-0.041239  -0.205769  0.0
-0.039341  -0.185574  0.0
-0.037412  -0.166334  0.0
-0.035452  -0.148067  0.0
-0.033462  -0.130787  0.0
-0.031441  -0.114509  0.0
-0.029388  -0.099249  0.0
-0.027305  -0.085023  0.0
-0.025191  -0.071845  0.0
-0.023047  -0.059732  0.0
-0.020871  -0.048698  0.0
-0.018665  -0.03876  0.0
-0.016428  -0.029932  0.0
-0.01416  -0.02223  0.0
-0.011862  -0.01567  0.0
-0.009537  -0.010268  0.0
-0.007189  -0.006036  0.0
-0.004826  -0.002979  0.0
-0.002456  -0.001067  0.0
0.0  0.0  0.0
FIELD FieldData 2
AppliedForcesMoments 2 405 double
0.0 0.0 
0.0 0.0 
0.0 0.0 
0.0 0.0 
0.0 0.0 
0.0 0.0 
0.0 0.0 
0.0 0.0 
0.0 0.0 
0.0 0.0 
0.0 0.0 
0.0 0.0 
0.0 0.0 
0.0 0.0 
0.0 0.0 
0.0 0.0 
0.0 0.0 
0.0 0.0 
0.0 0.0 
0.0 0.0 
0.0 0.0 
0.0 0.0 
0.0 0.0 
0.0 0.0 
0.0 0.0 
0.0 0.0 
0.0 0.0 
0.0 0.0 
0.0 0.0 
0.0 0.0 
0.0 0.0 
0.0 0.0 
0.0 0.0 
0.0 0.0 
0.0 0.0 
0.0 0.0 
0.0 0.0 
0.0 0.0 
0.0 0.0 
0.0 0.0 
0.0 0.0 
0.0 0.0 
0.0 0.0 
0.0 0.0 
0.0 0.0 
0.0 0.0 
0.0 0.0 
0.0 0.0 
0.0 0.0 
0.0 0.0 
0.0 0.0 
0.0 0.0 
0.0 0.0 
0.0 0.0 
0.0 0.0 
0.0 0.0 
0.0 0.0 
0.0 0.0 
0.0 0.0 
0.0 0.0 
0.0 0.0 
0.0 0.0 
0.0 0.0 
0.0 0.0 
0.0 0.0 
0.0 0.0 
0.0 0.0 
0.0 0.0 
0.0 0.0 
0.0 0.0 
0.0 0.0 
0.0 0.0 
0.0 0.0 
0.0 0.0 
0.0 0.0 
0.0 0.0 
0.0 0.0 
0.0 0.0 
0.0 0.0 
0.0 0.0 
0.0 0.0 
0.0 0.0 
0.0 0.0 
0.0 0.0 
0.0 0.0 
0.0 0.0 
0.0 0.0 
0.0 0.0 
0.0 0.0 
0.0 0.0 
0.0 0.0 
0.0 0.0 
0.0 0.0 
0.0 0.0 
0.0 0.0 
0.0 0.0 
0.0 0.0 
0.0 0.0 
0.0 0.0 
0.0 0.0 
0.0 0.0 
0.0 0.0 
0.0 0.0 
0.0 0.0 
0.0 0.0 
0.0 0.0 
0.0 0.0 
0.0 0.0 
0.0 0.0 
0.0 0.0 
0.0 0.0 
0.0 0.0 
0.0 0.0 
0.0 0.0 
0.0 0.0 
0.0 0.0 
0.0 0.0 
0.0 0.0 
0.0 0.0 
0.0 0.0 
0.0 0.0 
0.0 0.0 
0.0 0.0 
0.0 0.0 
0.0 0.0 
0.0 0.0 
0.0 0.0 
0.0 0.0 
0.0 0.0 
0.0 0.0 
0.0 0.0 
0.0 0.0 
0.0 0.0 
0.0 0.0 
0.0 0.0 
0.0 0.0 
0.0 0.0 
0.0 0.0 
0.0 0.0 
0.0 0.0 
0.0 0.0 
0.0 0.0 
0.0 0.0 
0.0 0.0 
0.0 0.0 
0.0 0.0 
0.0 0.0 
0.0 0.0 
0.0 0.0 
0.0 0.0 
0.0 0.0 
0.0 0.0 
0.0 0.0 
0.0 0.0 
0.0 0.0 
0.0 0.0 
0.0 0.0 
0.0 0.0 
0.0 0.0 
0.0 0.0 
0.0 0.0 
0.0 0.0 
0.0 0.0 
0.0 0.0 
0.0 0.0 
0.0 0.0 
0.0 0.0 
0.0 0.0 
0.0 0.0 
0.0 0.0 
0.0 0.0 
0.0 0.0 
0.0 0.0 
0.0 0.0 
0.0 0.0 
0.0 0.0 
0.0 0.0 
0.0 0.0 
0.0 0.0 
0.0 0.0 
0.0 0.0 
0.0 0.0 
0.0 0.0 
0.0 0.0 
0.0 0.0 
0.0 0.0 
0.0 0.0 
0.0 0.0 
0.0 0.0 
0.0 0.0 
0.0 0.0 
0.0 0.0 
0.0 0.0 
0.0 0.0 
0.0 0.0 
0.0 0.0 
0.0 0.0 
0.0 0.0 
0.0 0.0 
0.0 0.0 
0.0 0.0 
0.0 0.0 
0.0 0.0 
0.0 0.0 
0.0 0.0 
0.0 0.0 
0.0 0.0 
0.0 0.0 
0.0 0.0 
0.0 0.0 
0.0 0.0 
0.0 0.0 
0.0 0.0 
0.0 0.0 
0.0 0.0 
0.0 0.0 
0.0 0.0 
0.0 0.0 
0.0 0.0 
0.0 0.0 
0.0 0.0 
0.0 0.0 
0.0 0.0 
0.0 0.0 
0.0 0.0 
0.0 0.0 
0.0 0.0 
0.0 0.0 
0.0 0.0 
0.0 0.0 
0.0 0.0 
0.0 0.0 
0.0 0.0 
0.0 0.0 
0.0 0.0 
0.0 0.0 
0.0 0.0 
0.0 0.0 
0.0 0.0 
0.0 0.0 
0.0 0.0 
0.0 0.0 
0.0 0.0 
0.0 0.0 
0.0 0.0 
0.0 0.0 
0.0 0.0 
0.0 0.0 
0.0 0.0 
0.0 0.0 
0.0 0.0 
0.0 0.0 
0.0 0.0 
0.0 0.0 
0.0 0.0 
0.0 0.0 
0.0 0.0 
0.0 0.0 
0.0 0.0 
0.0 0.0 
0.0 0.0 
0.0 0.0 
0.0 0.0 
0.0 0.0 
0.0 0.0 
0.0 0.0 
0.0 0.0 
0.0 0.0 
0.0 0.0 
0.0 0.0 
0.0 0.0 
0.0 0.0 
0.0 0.0 
0.0 0.0 
0.0 0.0 
0.0 0.0 
0.0 0.0 
0.0 0.0 
0.0 0.0 
0.0 0.0 
0.0 0.0 
0.0 0.0 
0.0 0.0 
0.0 0.0 
0.0 0.0 
0.0 0.0 
0.0 0.0 
0.0 0.0 
0.0 0.0 
0.0 0.0 
0.0 0.0 
0.0 0.0 
0.0 0.0 
0.0 0.0 
0.0 0.0 
0.0 0.0 
0.0 0.0 
0.0 0.0 
0.0 0.0 
0.0 0.0 
0.0 0.0 
0.0 0.0 
0.0 0.0 
0.0 0.0 
0.0 0.0 
0.0 0.0 
0.0 0.0 
0.0 0.0 
0.0 0.0 
0.0 0.0 
0.0 0.0 
0.0 0.0 
0.0 0.0 
0.0 0.0 
0.0 0.0 
0.0 0.0 
0.0 0.0 
0.0 0.0 
0.0 0.0 
0.0 0.0 
0.0 0.0 
0.0 0.0 
0.0 0.0 
0.0 0.0 
0.0 -1000.0 
0.0 0.0 
0.0 0.0 
0.0 0.0 
0.0 0.0 
0.0 0.0 
0.0 0.0 
0.0 0.0 
0.0 0.0 
0.0 0.0 
0.0 0.0 
0.0 0.0 
0.0 0.0 
0.0 0.0 
0.0 0.0 
0.0 0.0 
0.0 0.0 
0.0 0.0 
0.0 0.0 
0.0 0.0 
0.0 0.0 
0.0 0.0 
0.0 0.0 
0.0 0.0 
0.0 0.0 
0.0 0.0 
0.0 0.0 
0.0 0.0 
0.0 0.0 
0.0 0.0 